LAMMPS data file via write_data, version 29 Aug 2024, timestep = 0, units = metal

20300 atoms
5 atom types

0 66.2558130260142 xlo xhi
0 66.2558130260142 ylo yhi
0 66.2558130260142 zlo zhi

Masses

1 28.086
2 15.9994
3 40.078
4 22.99
5 39.1

Atoms # charge

1 1 2.4 6.607329740364934 4.648314713655298 8.621834733846653 0 0 0
2 1 2.4 7.7898793763663905 3.016139185889133 6.554332337802147 0 0 0
3 1 2.4 13.86473188268947 2.854339870029875 3.681564757832013 0 0 0
4 1 2.4 14.476008595944904 6.931040521892221 12.278751709607114 0 0 0
5 1 2.4 6.351148693512362 5.641306953411779 1.3775257654552475 0 0 0
6 1 2.4 2.476230044725919 9.347781371603334 15.628827857564639 0 0 0
7 1 2.4 21.71428985920851 15.051516431222293 6.142526230862317 0 0 0
8 1 2.4 10.77812050286502 4.478478529615427 3.1850496943547117 0 0 0
9 1 2.4 5.326524993564846 11.302168699202387 0.13338191183848347 0 0 0
10 1 2.4 5.373269342388205 1.8646830612298166 0.7286487848135625 0 0 0
11 1 2.4 9.331264188419148 3.0477821850151003 8.331714439816512 0 0 0
12 1 2.4 9.36317529809208 9.331298249874136 3.6202530590059534 0 0 0
13 1 2.4 12.00421872721053 5.953484014124042 13.92815610133846 0 0 0
14 1 2.4 18.725936613753873 11.704793793942773 8.960420560023923 0 0 0
15 1 2.4 5.270795146527787 2.2320119115328865 12.634024409188168 0 0 0
16 1 2.4 2.1958122672191984 0.5289196631615926 11.273833270984062 0 0 0
17 1 2.4 5.858402696634476 6.035965678544602 8.825416471391614 0 0 0
18 1 2.4 6.583713150331499 5.259164177790549 5.517759422823729 0 0 0
19 1 2.4 14.906044399765104 12.659175492451048 15.346875093184199 0 0 0
20 1 2.4 15.370654647533982 3.177672674306199 4.959338096843663 0 0 0
21 1 2.4 1.7826069255813293 12.647110486984845 11.33776730075826 0 0 0
22 1 2.4 1.269374691282854 0.008642014356466811 12.734709237109309 0 0 0
23 1 2.4 14.329925309463958 3.1743265991450915 14.977665890131377 0 0 0
24 1 2.4 1.1117658291174237 1.309016640538545 3.712752894611155 0 0 0
25 1 2.4 21.087177500396333 9.848373011210729 14.584260435254974 0 0 0
26 1 2.4 4.762933484268527 13.600934675989823 8.35415961198491 0 0 0
27 1 2.4 18.161822705403328 5.223598866370487 4.073887619960148 0 0 0
28 1 2.4 6.257032111200363 13.96342065998386 5.12129420646583 0 0 0
29 1 2.4 8.69292062017434 7.849140908812032 5.187519609554412 0 0 0
30 1 2.4 1.0765683752406832 6.047726568284517 7.723251252107551 0 0 0
31 1 2.4 4.112619690258353 15.986148039335363 11.868276621897047 0 0 0
32 1 2.4 4.021608593228838 10.246339862601003 11.376016124163815 0 0 0
33 1 2.4 19.482607239259945 7.951895679737365 9.535815875259333 0 0 0
34 1 2.4 15.8483797895841 15.350758962930362 0.06996667134474992 0 0 0
35 1 2.4 8.886093096857635 7.964118250285657 16.193120002351296 0 0 0
36 1 2.4 10.218126580488022 0.9860748333809426 9.006468129952845 0 0 0
37 1 2.4 10.683868847138223 10.530413353640446 15.380642151068027 0 0 0
38 1 2.4 20.677494218103675 14.906002224032344 11.950327951920706 0 0 0
39 1 2.4 16.64785005251045 2.1174236851591846 8.168281500786797 0 0 0
40 1 2.4 4.411648412289731 6.320089243625211 13.67163690815738 0 0 0
41 1 2.4 10.672060197314682 10.829874847437335 12.98817841828333 0 0 0
42 1 2.4 15.071649373605677 13.23782373834339 1.0834289816718072 0 0 0
43 1 2.4 20.433096490952774 15.173809611707073 7.593806832124626 0 0 0
44 1 2.4 2.5278636315674117 15.827906078386995 2.5281600032491314 0 0 0
45 1 2.4 16.09635517276671 8.956803474155734 3.7887950311673317 0 0 0
46 1 2.4 13.442867279998271 1.9479562225401172 8.92859738073751 0 0 0
47 1 2.4 7.482985142423429 12.998165335614798 14.749248909101361 0 0 0
48 1 2.4 8.668843398326612 0.71815147015431 11.413788148905066 0 0 0
49 1 2.4 1.7036643512334775 10.97552394292548 9.447444325022051 0 0 0
50 1 2.4 14.6141646341271 9.966118339546439 5.855602993127708 0 0 0
51 1 2.4 5.9851612598216 16.28112033209363 0.2816240589986935 0 0 0
52 1 2.4 18.126493417652345 7.746576869693526 4.044852821214941 0 0 0
53 1 2.4 19.19878001500829 8.08627555518369 15.36073961715009 0 0 0
54 1 2.4 19.987475504339958 12.528759549681771 9.887954828423148 0 0 0
55 1 2.4 14.310069332371723 0.7339847400479803 12.500303147763256 0 0 0
56 1 2.4 2.145186486018283 10.986984357565639 3.295194104110342 0 0 0
57 1 2.4 6.615108247473016 2.8700576271631495 2.8266567927212196 0 0 0
58 1 2.4 0.241020182167251 9.221607098121437 15.203830279775378 0 0 0
59 1 2.4 20.99596419433059 0.7100375626140002 7.554970170945614 0 0 0
60 1 2.4 20.79126314924439 5.601850151612053 0.7851881776091749 0 0 0
61 1 2.4 16.710916317354386 1.9791285009969186 2.7945771960866104 0 0 0
62 1 2.4 12.311808197409569 7.65629362029502 10.537979778826797 0 0 0
63 1 2.4 10.13558268603602 5.042914324886166 15.076198089632227 0 0 0
64 1 2.4 12.358952212979233 4.936006987465126 7.191529756598254 0 0 0
65 1 2.4 12.024493592323033 15.434076829900336 9.021283289381692 0 0 0
66 1 2.4 5.779507758959181 5.165008690139111 13.185991089447924 0 0 0
67 1 2.4 14.763965401380704 9.946718582322788 11.082948465283089 0 0 0
68 1 2.4 16.6365464316332 10.90490667927879 15.187728683365373 0 0 0
69 1 2.4 17.71302258795272 15.402709839629738 11.882782019543212 0 0 0
70 1 2.4 9.501280953705438 11.51959623308355 10.368227421755408 0 0 0
71 1 2.4 15.714324948040225 14.98868001949399 10.143962729546194 0 0 0
72 1 2.4 0.9462556041249223 2.3228122841624277 14.832187595562448 0 0 0
73 1 2.4 20.065607915873912 0.5839396805836895 8.413883719969174 0 0 0
74 1 2.4 17.617790215314947 4.971735540876442 11.379009706459666 0 0 0
75 1 2.4 16.948198131425585 14.625796034803077 6.687630422672148 0 0 0
76 1 2.4 10.522110966545313 8.354048295200853 10.42189531665498 0 0 0
77 1 2.4 8.263607264750886 14.26319614239254 8.006037072055149 0 0 0
78 1 2.4 8.476016904574694 6.418109256337779 4.698664917939585 0 0 0
79 1 2.4 3.3942970798043866 1.6960048741012517 14.754317833635664 0 0 0
80 1 2.4 5.282537154374176 0.812498707753894 6.968297860771049 0 0 0
81 1 2.4 9.332016378883477 15.689847318979782 1.1280465566937912 0 0 0
82 1 2.4 17.2235215925706 4.0802956780019874 2.762978254712204 0 0 0
83 1 2.4 11.732402269260339 9.18537404026087 2.537144051382774 0 0 0
84 1 2.4 11.227827660818534 9.543997288654275 0.6390944320401475 0 0 0
85 1 2.4 15.16602866723038 9.331099064409097 0.27254294805944085 0 0 0
86 1 2.4 3.3946390518760277 7.443529482176089 12.425013818726752 0 0 0
87 1 2.4 4.715195552930269 6.339278986062534 4.914572922183396 0 0 0
88 1 2.4 3.796416898776341 2.0308736822973725 11.150269974631973 0 0 0
89 1 2.4 13.116212033780515 11.08571419989317 6.252328452576936 0 0 0
90 1 2.4 22.045085238256792 9.241157910493298 12.515268683579436 0 0 0
91 1 2.4 20.763441481305478 1.7937682843490204 1.4686282175284409 0 0 0
92 1 2.4 2.2438107810292247 12.17018495610224 12.603745904544375 0 0 0
93 1 2.4 20.645928566865077 14.428606065038874 5.306459896416534 0 0 0
94 1 2.4 14.873980784863905 3.8125040560912975 7.384474570712385 0 0 0
95 1 2.4 17.98842179264121 6.1302312180166405 3.006825753612867 0 0 0
96 1 2.4 13.127658749792037 4.703231127485138 4.020619607776252 0 0 0
97 1 2.4 6.993420096696596 0.5992570305042466 0.8293317307159026 0 0 0
98 1 2.4 0.8404342224037769 12.689801399253511 0.02998651405501613 0 0 0
99 1 2.4 6.764960631406145 3.7181794027173036 12.20953793834034 0 0 0
100 1 2.4 7.644255086503074 6.97378141564375 1.8110097053904513 0 0 0
101 1 2.4 3.8642146205869534 15.158362711017043 13.000999038871019 0 0 0
102 1 2.4 1.5852485922665174 8.436253765649441 0.6771635997823002 0 0 0
103 1 2.4 15.646533119108149 1.960232600314405 16.490239555148356 0 0 0
104 1 2.4 7.853644178712497 14.618163800664291 10.92429730408335 0 0 0
105 1 2.4 11.204434845905595 13.915835203021103 0.42227534558093 0 0 0
106 1 2.4 12.556620369782264 14.354067075300666 11.390106860618815 0 0 0
107 1 2.4 13.332813855053113 7.442807897656823 0.2973428034205185 0 0 0
108 1 2.4 19.935863699552108 6.414725818475593 14.089037794195665 0 0 0
109 1 2.4 14.349942646528646 8.326645515282207 13.65406440607113 0 0 0
110 1 2.4 9.816600399609756 10.628481465817078 7.216077853378983 0 0 0
111 1 2.4 19.655871875349344 4.754861289669471 10.443186101685836 0 0 0
5251 2 -1.2 21.19360489217081 9.666594862540247 7.2063149271373845 0 0 0
5252 2 -1.2 21.240871115551357 9.000254907135872 5.263085842176533 0 0 0
5253 2 -1.2 15.410827264385508 15.80071383775172 9.298862828275412 0 0 0
5254 2 -1.2 2.854181348512003 1.017293606957914 3.653891429997793 0 0 0
5255 2 -1.2 2.263298499492163 8.421204032631573 12.759552872547042 0 0 0
5256 2 -1.2 5.586662043933296 10.541914524786076 9.913386517603708 0 0 0
5257 2 -1.2 21.008716445186167 16.269678614230394 6.748111009655383 0 0 0
5258 2 -1.2 17.40523559833807 10.3801914152618 8.321418809696445 0 0 0
5259 2 -1.2 18.00064676970534 12.827981656857958 3.4721201614943977 0 0 0
5260 2 -1.2 3.509361703756419 14.168561881499697 7.627526870391243 0 0 0
5261 2 -1.2 7.458998905386173 7.396357606557643 14.677056611689126 0 0 0
5262 2 -1.2 11.747824919675349 3.370607461270989 1.0794643393811139 0 0 0
5263 2 -1.2 21.926310137110256 0.6624237211054196 2.37889224840167 0 0 0
5264 2 -1.2 18.883358261327935 7.2579035306443 6.632858646614941 0 0 0
5265 2 -1.2 9.575546711337326 0.8437372579546404 1.9481068766023533 0 0 0
5266 2 -1.2 0.9546495930858708 10.888958698796673 12.173272824454653 0 0 0
5267 2 -1.2 16.13138660790315 1.4278165781626757 12.708913762950697 0 0 0
5268 2 -1.2 10.447154168633688 7.4155932887653275 6.692102346161139 0 0 0
5269 2 -1.2 20.921301083909935 4.707588216974611 10.99440963134205 0 0 0
5270 2 -1.2 15.682378141715644 8.105210330352875 2.318440755577905 0 0 0
5271 2 -1.2 14.799631508791208 13.084668596534302 10.981668610893736 0 0 0
5272 2 -1.2 12.844487085137839 15.855601157422091 4.208662164004491 0 0 0
5273 2 -1.2 15.887276181720413 6.524291337760256 0.3939556831266438 0 0 0
5274 2 -1.2 18.56445366216948 14.149160581637686 12.82894521963037 0 0 0
5275 2 -1.2 14.105556180637773 8.783720900245578 10.045748467811336 0 0 0
5276 2 -1.2 3.4258096642834004 1.2815080047756369 5.165802809514064 0 0 0
5277 2 -1.2 16.278129433988525 16.269412632524368 2.27775647643514 0 0 0
5278 2 -1.2 6.509398120830393 15.106910846974358 9.57508941162189 0 0 0
5279 2 -1.2 7.715684425835226 14.882053102874028 6.972326800228586 0 0 0
5280 2 -1.2 0.039948872583793316 8.86257125567227 10.167411603937133 0 0 0
5281 2 -1.2 17.981111692244752 15.780999906799675 9.245890447306824 0 0 0
5282 2 -1.2 13.668323074137998 14.602145846106163 6.733787149691423 0 0 0
5283 2 -1.2 7.459375093176639 13.71894580091496 4.092745448327937 0 0 0
5284 2 -1.2 20.006654078075552 3.583983193794119 9.471497450858596 0 0 0
5285 2 -1.2 11.744360339035428 11.397213672132194 7.414729318725435 0 0 0
5286 2 -1.2 5.247305453925844 4.975626506759062 10.518660269650631 0 0 0
5287 2 -1.2 0.6435134121806235 15.832395279425619 11.722348833362789 0 0 0
5288 2 -1.2 17.416565289803604 2.03087679842686 11.202642762922805 0 0 0
5289 2 -1.2 21.970115513035708 8.085433614019577 1.2102344719178428 0 0 0
5290 2 -1.2 3.769360780549951 11.089385833453768 1.7056606795351328 0 0 0
5291 2 -1.2 15.355118242966308 7.080573209451627 7.753736531997117 0 0 0
5292 2 -1.2 14.337973778285036 5.9333160229971185 6.243794361200134 0 0 0
5293 2 -1.2 19.34040368825436 3.146082865350884 4.075923192981682 0 0 0
5294 2 -1.2 6.122983594473764 13.707642920504124 12.892673461447345 0 0 0
5295 2 -1.2 12.773196151319345 10.27351093823798 4.249593172726552 0 0 0
5296 2 -1.2 3.1544658707267095 12.457468492452207 4.303790439405734 0 0 0
5297 2 -1.2 19.096759354825704 16.07617854286497 1.1272498456863937 0 0 0
5298 2 -1.2 7.387826847279699 3.812211479299943 2.46713643841595 0 0 0
5299 2 -1.2 8.082338248444735 15.442238281554902 13.679175195620045 0 0 0
5300 2 -1.2 10.904829177127585 13.885150028052852 14.743043862267696 0 0 0
5301 2 -1.2 19.470439494078967 2.2160415010890135 9.24258818307514 0 0 0
5302 2 -1.2 9.303594717180827 1.7976702646695315 0.7933984383414494 0 0 0
5303 2 -1.2 21.079466992787157 12.769497675851284 14.36904677253699 0 0 0
5304 2 -1.2 16.187289600669736 13.408033641952349 12.80131881885506 0 0 0
5305 2 -1.2 5.4919245496814035 8.428361257566555 0.539406302763394 0 0 0
5306 2 -1.2 5.196102479156156 5.732798890818102 15.198818155185489 0 0 0
5307 2 -1.2 7.655808090297598 2.3776771121655105 9.363969479172567 0 0 0
5308 2 -1.2 2.85488408199051 12.828135180227543 6.052387434119838 0 0 0
5309 2 -1.2 9.004738184443191 14.35771452029178 6.4369018002501734 0 0 0
5310 2 -1.2 16.82206769972588 14.937647290293713 13.76245239864285 0 0 0
5311 2 -1.2 15.3200732326123 14.381401423781664 7.007810598637707 0 0 0
5312 2 -1.2 1.245745667584237 0.41051886778672414 8.986056185995672 0 0 0
5313 2 -1.2 10.620526696849986 6.031901875460129 6.780891056663727 0 0 0
5314 2 -1.2 6.437584602841071 0.7417484686805736 10.47366422373341 0 0 0
5315 2 -1.2 8.200196158527957 8.605742269855739 0.2704936764092708 0 0 0
5316 2 -1.2 18.749127466452723 3.938576947380177 6.105541630445535 0 0 0
5317 2 -1.2 0.07554531444596034 10.829652398985823 9.24948729375973 0 0 0
5318 2 -1.2 2.0580464856893124 4.052885400860912 5.869141526755368 0 0 0
5319 2 -1.2 12.438347921918945 14.22342661694448 2.1577531266263854 0 0 0
5320 2 -1.2 10.817669215058235 6.615554100811819 10.363514692418425 0 0 0
5321 2 -1.2 14.267529814631708 14.586253369752235 4.652189173307466 0 0 0
5322 2 -1.2 5.49986120807415 9.308152812448608 12.149764404223019 0 0 0
5323 2 -1.2 0.6745956005572019 8.184231116465577 5.304532431491268 0 0 0
5324 2 -1.2 15.883224503773448 4.683553109154112 4.5712306482980205 0 0 0
5325 2 -1.2 11.720830784658261 13.470871411202406 8.822698188337487 0 0 0
5326 2 -1.2 2.5788991683695057 12.256603772997918 7.416914897901093 0 0 0
5327 2 -1.2 15.260181902629814 1.6250137983271709 14.211941766912698 0 0 0
5328 2 -1.2 14.779527629714524 6.477838084795425 14.723889415396046 0 0 0
5329 2 -1.2 3.1423799779371127 8.09730745574021 2.006453192561782 0 0 0
5330 2 -1.2 8.621627835189813 2.235938142128416 12.366369002244666 0 0 0
5331 2 -1.2 6.852446583813726 16.466694944620798 5.2109245804576245 0 0 0
5332 2 -1.2 1.6798197592504365 7.754344640038624 2.086142959225676 0 0 0
5333 2 -1.2 16.266299495755614 16.211079830076972 15.71554113327047 0 0 0
5334 2 -1.2 8.656979182669346 0.0837179965077856 15.676293760054495 0 0 0
5335 2 -1.2 19.87273640793465 5.527344020070913 7.421082859927632 0 0 0
5336 2 -1.2 18.497173372117576 9.718147121487402 12.319561713776219 0 0 0
5337 2 -1.2 16.439091961095794 5.078271657802535 13.024575180926655 0 0 0
5338 2 -1.2 18.725850997324898 10.265838472090762 7.81008068848189 0 0 0
5339 2 -1.2 7.289282831169012 3.978258357325116 10.47286831489796 0 0 0
5340 2 -1.2 11.26719110214471 8.56722539760875 15.475552081435799 0 0 0
5341 2 -1.2 0.10260772663685945 1.87692290932774 7.6763366885675515 0 0 0
5342 2 -1.2 7.198502543690917 2.1176663113204426 12.246099393054978 0 0 0
5343 2 -1.2 14.866718753078745 14.271161894944756 9.374814165137721 0 0 0
5344 2 -1.2 12.028317761964665 13.451082970817573 7.517445770513906 0 0 0
5345 2 -1.2 16.34425666357188 1.320938797692613 5.321009104992121 0 0 0
5346 2 -1.2 6.839962443505116 5.413187855849075 10.217008537910239 0 0 0
5347 2 -1.2 9.268389982051026 6.414004172250793 1.9603296939727823 0 0 0
5348 2 -1.2 4.38431366272276 10.695644453648093 9.675592886977432 0 0 0
5349 2 -1.2 20.153109603192764 13.596911876232957 6.998777124371012 0 0 0
5350 2 -1.2 4.533820248841115 5.731942356295104 0.8030424271654931 0 0 0
5351 2 -1.2 8.39324901903282 6.71033050040315 13.130949999585829 0 0 0
5352 2 -1.2 1.9631943425545055 0.012428358505513335 10.115982324120036 0 0 0
5353 2 -1.2 6.619070143867429 3.201837302043402 13.559358319936246 0 0 0
5354 2 -1.2 18.343677893433508 13.89634489292572 4.127698702552292 0 0 0
5355 2 -1.2 17.6065271349738 14.440583325235162 7.840832937366035 0 0 0
5356 2 -1.2 6.347120710490608 4.198809332799272 6.947583652253622 0 0 0
5357 2 -1.2 5.330222049805617 7.182779911820425 2.890644568015878 0 0 0
5358 2 -1.2 13.029735583915707 15.303907894385262 7.713813945970979 0 0 0
5359 2 -1.2 1.6448034111171579 15.536898798152631 14.498965029318569 0 0 0
5360 2 -1.2 3.7418323373105005 12.209531490111996 11.342812746336724 0 0 0
5361 2 -1.2 9.946669742392311 10.262095753754537 11.162026637542782 0 0 0
5362 2 -1.2 9.06377365866356 12.729734351809428 8.62498986123156 0 0 0
5363 2 -1.2 21.965819234350384 2.133690775812449 16.546022006153493 0 0 0
5364 2 -1.2 21.37891410919453 10.135393157487112 1.857508003395393 0 0 0
5365 2 -1.2 20.700875771756582 10.344896312376871 11.418941856843636 0 0 0
5366 2 -1.2 17.495410770493077 2.070610226137298 16.44423203211126 0 0 0
5367 2 -1.2 6.694358547320918 9.713586650556548 1.9275398049317014 0 0 0
5368 2 -1.2 20.689101368504634 11.219939934914564 9.486614072675751 0 0 0
5369 2 -1.2 5.507290215035395 1.6558467580503102 2.3749916256029158 0 0 0
5370 2 -1.2 6.666920872922568 12.35928421960707 10.516042381500972 0 0 0
5371 2 -1.2 8.661669296927972 12.654655315234157 5.632069634912194 0 0 0
5372 2 -1.2 20.274509349244976 0.032239969318513674 11.810660128145727 0 0 0
5373 2 -1.2 7.940349525257159 14.247036604485732 1.4359355764095736 0 0 0
5374 2 -1.2 17.472430734752507 13.380027690434948 5.895982848016514 0 0 0
5375 2 -1.2 10.025632463597143 12.272290523100157 6.0408717621736265 0 0 0
5376 2 -1.2 3.2485172611416155 3.039674571439299 4.578679123355367 0 0 0
5377 2 -1.2 2.1650713104478485 13.91216341519667 4.966350406331108 0 0 0
5378 2 -1.2 21.29249211446383 15.268814290922913 14.197937788439063 0 0 0
5379 2 -1.2 8.842423750782768 2.8273620561266375 14.05613766821738 0 0 0
5380 2 -1.2 3.1775800234462985 3.402155094493542 1.2540317027127539 0 0 0
5381 2 -1.2 21.099300169684433 14.826636658246183 3.169524304224927 0 0 0
5382 2 -1.2 0.5213081929351294 15.859479226848023 3.131561979615587 0 0 0
5383 2 -1.2 9.891216860646402 5.846894614468995 11.387067801344111 0 0 0
5384 2 -1.2 8.826625066841128 2.3221331530508285 3.4180310029114827 0 0 0
5385 2 -1.2 5.77922042713825 0.33582277575793495 12.429284952406807 0 0 0
5386 2 -1.2 2.0896813396847382 5.693372293877465 15.114133634039637 0 0 0
5387 2 -1.2 7.880909725522639 9.079517856618324 12.319217273483202 0 0 0
5388 2 -1.2 18.87598037740194 15.769434438487202 13.632503597621744 0 0 0
5389 2 -1.2 2.1410893002397 8.381396002930048 6.264127939128619 0 0 0
5390 2 -1.2 4.379957776491207 3.7420775859569706 16.331425491337807 0 0 0
5391 2 -1.2 19.35222831981131 3.115226364966371 15.517225438589453 0 0 0
5392 2 -1.2 18.911103229287594 9.776888846511262 5.7545387995810815 0 0 0
5393 2 -1.2 12.055822571984441 11.933733791082357 13.917796976223496 0 0 0
5394 2 -1.2 6.386980912221469 11.571089563245353 14.491058112993402 0 0 0
5395 2 -1.2 5.101461862593271 5.247468942739235 7.7233829934234945 0 0 0
5396 2 -1.2 13.529919349940723 7.404209173018455 14.126708066510695 0 0 0
5397 2 -1.2 12.004644680514486 13.11248119375966 14.637298995409205 0 0 0
5398 2 -1.2 12.701927493198768 5.065808373964552 2.321602793982666 0 0 0
5399 2 -1.2 19.67613949006156 14.11359662773938 11.407889284933093 0 0 0
5400 2 -1.2 5.038925679142591 14.294842103384157 9.83319925006872 0 0 0
5401 2 -1.2 20.728249642632363 6.626852939510152 1.4956576172584364 0 0 0
5402 2 -1.2 9.335351038520718 5.479658816111799 1.0456162312778512 0 0 0
5403 2 -1.2 6.162049059774328 7.7227879669552815 1.7596426556047966 0 0 0
5404 2 -1.2 8.353908593870974 8.07393506535916 6.721566214339793 0 0 0
5405 2 -1.2 4.951997914999187 10.92779671749744 2.3657228681335547 0 0 0
5406 2 -1.2 15.840201584876947 10.411298501821507 1.0917184106047164 0 0 0
5407 2 -1.2 1.2466515048292197 15.634925444210147 5.637479667640658 0 0 0
5408 2 -1.2 9.426285682393114 9.93451878111669 4.808328672435011 0 0 0
5409 2 -1.2 12.903290330579495 10.3245519051271 0.7695543400026835 0 0 0
5410 2 -1.2 19.601121727081942 12.150501723653559 13.066723269609211 0 0 0
5411 2 -1.2 17.893730114748607 4.786713501409819 15.736804613602352 0 0 0
5412 2 -1.2 7.8063971766059215 15.60755570760517 9.425007729922935 0 0 0
5413 2 -1.2 17.712122828702878 0.28045612749634957 9.463409984139776 0 0 0
5414 2 -1.2 11.566605638029923 5.38554004325333 9.330913423308854 0 0 0
5415 2 -1.2 14.752405856799532 14.432891884636117 11.08241684125147 0 0 0
5416 2 -1.2 8.03451423788599 6.733849132900726 10.873728230268549 0 0 0
5417 2 -1.2 18.512979769251015 10.353011639144473 15.301612787886045 0 0 0
5418 2 -1.2 17.440460017533344 6.09468759609192 1.9274892989517958 0 0 0
5419 2 -1.2 6.477399512709682 7.352808370305484 11.558986207789522 0 0 0
5420 2 -1.2 21.461429433984105 5.598383349572894 8.774459331470975 0 0 0
5421 2 -1.2 10.841741037671701 13.655798609262657 2.870903764303601 0 0 0
5422 2 -1.2 18.686743726524774 15.548068394609164 3.458933596234952 0 0 0
5423 2 -1.2 17.43222927056365 0.2721493284555073 2.3626645567321187 0 0 0
5424 2 -1.2 11.617780505928689 4.155975479660171 15.852957229536914 0 0 0
5425 2 -1.2 20.04981981443142 0.2565708407133721 5.55827317872218 0 0 0
5426 2 -1.2 4.407887521673625 9.366613684732648 0.8644494918949667 0 0 0
5427 2 -1.2 16.400153331521185 13.194854657525651 7.716030964116413 0 0 0
5428 2 -1.2 8.779803339277631 10.459114305544178 9.662175265344427 0 0 0
5429 2 -1.2 13.35679003408826 12.87557078530001 8.232845574919978 0 0 0
5430 2 -1.2 11.964640242096968 3.3160149706439785 11.1248567354062 0 0 0
5431 2 -1.2 12.65111455911202 12.378394516168854 0.42373156533998774 0 0 0
5432 2 -1.2 14.689273165947816 13.454765156024553 3.1481195182192696 0 0 0
5433 2 -1.2 20.235668522942394 9.792602561932034 4.831701772429707 0 0 0
5434 2 -1.2 6.958312486077941 6.84796259689276 7.360139789964075 0 0 0
5435 2 -1.2 1.5891283894474115 7.38819195892674 9.948642931118567 0 0 0
5436 2 -1.2 9.836104747714213 7.158994927383613 0.6712892946130152 0 0 0
5437 2 -1.2 15.252849248860535 10.896727950074593 10.239453000464993 0 0 0
5438 2 -1.2 1.4632090215281184 11.247392171819032 7.085668543954655 0 0 0
5439 2 -1.2 16.66037692390163 13.889112078711099 15.077416249439572 0 0 0
5440 2 -1.2 7.171712869962064 15.654311132571957 0.17367883448905638 0 0 0
5441 2 -1.2 13.312745425805941 1.4317826705334276 13.111215212163156 0 0 0
5442 2 -1.2 3.82441448919383 8.795684646929832 12.352999912014468 0 0 0
5443 2 -1.2 14.36187532447633 10.111724703952016 1.5966875950862383 0 0 0
5444 2 -1.2 5.243107626420655 0.6785526530671643 8.434599625388797 0 0 0
5445 2 -1.2 8.59013792749469 3.031563718322942 0.771196848770093 0 0 0
5446 2 -1.2 10.494930326550504 15.319723084557353 8.496463064250689 0 0 0
5447 2 -1.2 7.375808552903036 0.5881769687781265 13.37417337785881 0 0 0
5448 2 -1.2 3.5363525992329494 4.01385097344415 12.375650193379208 0 0 0
5449 2 -1.2 14.129526929585893 14.125220315223558 7.999765753477539 0 0 0
5450 2 -1.2 16.884645842939953 6.595491872970856 4.456716499418365 0 0 0
5451 2 -1.2 17.389496737912033 10.88041633887826 1.113455727735252 0 0 0
5452 2 -1.2 17.38927839287856 7.210691361311892 8.207684989004802 0 0 0
5453 2 -1.2 14.066282366600309 11.266858632725368 2.979411866698029 0 0 0
5454 2 -1.2 8.216228459622833 13.037374667368814 11.182357438722219 0 0 0
5455 2 -1.2 3.5527355111742813 14.338199867363075 9.733195157603074 0 0 0
5456 2 -1.2 16.246596887769133 16.348412531313674 4.912794908062446 0 0 0
5457 2 -1.2 4.341280870940756 16.257456259651473 0.09443667977169579 0 0 0
5458 2 -1.2 19.735352491104393 15.469309764459357 4.878897188709526 0 0 0
5459 2 -1.2 4.352787194498506 10.876797216727436 6.542682764846288 0 0 0
5460 2 -1.2 14.349780330120408 5.5985936420341265 12.308844727414506 0 0 0
5461 2 -1.2 4.963747234951402 9.631178076341484 8.258706518650587 0 0 0
5462 2 -1.2 5.184016555513793 1.3721193116477783 4.186337811272447 0 0 0
5463 2 -1.2 1.6447687017540582 14.953538532536951 15.823308676693804 0 0 0
5464 2 -1.2 18.450044350992773 12.69044538906327 10.853523246673753 0 0 0
5465 2 -1.2 4.0446929421753115 0.6901144499003402 3.986279922533197 0 0 0
5466 2 -1.2 18.174037346790453 11.74763758167291 0.22201765432129508 0 0 0
5467 2 -1.2 17.57488293258991 12.64297806734612 8.140003458715464 0 0 0
5468 2 -1.2 2.9139190934193704 11.192376874870316 10.024955091093275 0 0 0
5469 2 -1.2 0.8876908505737195 11.862194739310043 4.165588307189343 0 0 0
5470 2 -1.2 15.311936092938291 10.132120974703447 13.117744984371598 0 0 0
5471 2 -1.2 2.980650265920657 6.394371661751387 3.2757908605239967 0 0 0
5472 2 -1.2 16.56563640607855 11.724741650575726 12.944981860013028 0 0 0
5473 2 -1.2 19.490370998745306 5.925775298165844 12.01845817400343 0 0 0
5474 2 -1.2 6.497316701692039 10.821938466719491 12.113053745526205 0 0 0
5475 2 -1.2 8.791976236870731 16.281565074732814 7.756413595754267 0 0 0
5476 2 -1.2 12.141997621166475 2.6498988212128682 12.94313464313525 0 0 0
5477 2 -1.2 18.00428801329025 7.770549562365981 9.419020411067399 0 0 0
5478 2 -1.2 12.516957224675508 10.293717526176671 12.582651528229514 0 0 0
5479 2 -1.2 10.84976374443217 15.981805080413267 5.1319790442441215 0 0 0
5480 2 -1.2 16.17875510820696 2.4804448721058345 13.930572119832332 0 0 0
5481 2 -1.2 3.3946240265784016 7.190999304971791 8.522359210988672 0 0 0
5482 2 -1.2 12.157667463952288 0.9896944183232748 3.5850192297166847 0 0 0
5483 2 -1.2 2.109249738133904 3.300379898926799 13.369458488828121 0 0 0
5484 2 -1.2 0.2878531401380076 1.2733754004584037 0.9927481018096305 0 0 0
5485 2 -1.2 16.66384668780644 5.949621000848505 15.258305005389987 0 0 0
5486 2 -1.2 15.268744995607785 13.033291427041005 8.81115027524955 0 0 0
17501 3 1.2 5.9099722948367965 11.440633326762114 8.354921397659837 0 0 0
17502 3 1.2 5.290553042673093 3.0239072956146686 4.601326442854458 0 0 0
17503 3 1.2 3.1582349373261245 9.548357802800908 7.670442668480026 0 0 0
17504 3 1.2 15.75703492731902 4.001358472035628 1.1816180984013973 0 0 0
17505 3 1.2 20.45241016895594 8.499730680824806 7.44066853592643 0 0 0
17506 3 1.2 19.32087397917526 6.18932750304116 2.400892770489186 0 0 0
17507 3 1.2 1.8692219660763978 10.758209515288872 1.113575467324754 0 0 0
17508 3 1.2 20.306617268719876 9.623538375833034 12.369886125147127 0 0 0
17509 3 1.2 18.44146317829322 0.9783018797709563 10.878062858943501 0 0 0
17510 3 1.2 21.299543020763043 1.2617704097511486 4.715108363010163 0 0 0
17511 3 1.2 2.290695355679506 5.089474791217015 2.5481994000423676 0 0 0
17512 3 1.2 9.90364262751947 15.919319372089728 15.027687666708825 0 0 0
17513 3 1.2 16.072765578904576 10.021377589325404 7.016431663965245 0 0 0
17514 3 1.2 16.55383361828078 12.122726211454374 10.03438092000045 0 0 0
17515 3 1.2 3.796624013402553 5.511849205033423 12.022978628895226 0 0 0
17516 3 1.2 19.1911014091604 11.543573121732344 15.812916785940072 0 0 0
17517 3 1.2 4.943944756557492 8.089988839980007 11.5141041628471 0 0 0
18201 4 0.6 13.664400638432832 14.933581975423646 11.692518403457035 0 0 0
18202 4 0.6 6.7135268470850376 0.5961356560466549 14.624204247984945 0 0 0
18203 4 0.6 4.821985372161046 12.248819095336398 9.09146349272823 0 0 0
18204 4 0.6 2.3778511217725162 12.28854894412584 14.272901836750982 0 0 0
18205 4 0.6 6.725730443181501 6.934536171268713 4.774317754279236 0 0 0
18206 4 0.6 2.315002492348405 16.084642629313 10.871524725635147 0 0 0
18207 4 0.6 4.754559179373052 5.365618349766961 5.786076127979389 0 0 0
18208 4 0.6 2.6649154492115303 0.30434931258773024 13.501293658888583 0 0 0
18209 4 0.6 2.578543127436021 6.2726238039268605 10.98974821015692 0 0 0
18210 4 0.6 8.113896803546876 15.800369675133608 3.5145217056594973 0 0 0
18211 4 0.6 6.016636358188467 15.236594375903081 2.7243302582046183 0 0 0
18212 4 0.6 19.28913993353329 2.8817266065095772 0.17975359008683767 0 0 0
18213 4 0.6 3.6746496037084793 9.418149283185514 5.697683351038275 0 0 0
18214 4 0.6 11.168136380178568 0.1498389629793968 0.6225558061827582 0 0 0
18215 4 0.6 6.276062931033842 2.535344471177551 9.04675135397478 0 0 0
18216 4 0.6 21.855578162875116 4.47476721939621 7.064871865990502 0 0 0
18217 4 0.6 12.705967477946965 6.710019010865502 7.89574534033614 0 0 0
18218 4 0.6 6.773236855354693 10.305049253924837 4.267560713644027 0 0 0
18219 4 0.6 21.863881845786473 11.523139858513037 3.6701269891229797 0 0 0
18220 4 0.6 1.143564141073474 5.696741477761204 5.484194142037385 0 0 0
18221 4 0.6 4.529664226835481 2.137493533633646 14.203159680993146 0 0 0
18222 4 0.6 1.790448094659594 11.922013133350871 15.696141561163422 0 0 0
18223 4 0.6 10.959692369934006 8.389449161371742 9.101935816646051 0 0 0
18224 4 0.6 0.8793386362595593 3.9981548132479157 13.593537879317536 0 0 0
19601 5 0.6 14.543119041513377 8.507477748963112 5.1340166844010575 0 0 0
19602 5 0.6 13.67975621493195 7.99150409203511 12.676271103314694 0 0 0
19603 5 0.6 1.4393621155875373 7.987322184557796 8.64676515811852 0 0 0
19604 5 0.6 14.148548586147513 2.543137016294709 7.5044310860205306 0 0 0
19605 5 0.6 6.867537844656244 5.082263820761571 13.865045007423783 0 0 0
19606 5 0.6 1.1125539322027724 14.554665195993584 3.7962570197367125 0 0 0
19607 5 0.6 0.8475677832663168 0.07193276393454963 16.369328979720095 0 0 0
19608 5 0.6 19.39203218438926 9.540648066510913 10.604530894578707 0 0 0
19609 5 0.6 2.310733826889726 10.596995291306788 8.074447067030839 0 0 0
19610 5 0.6 18.954437853691115 9.28797791030183 4.3492491534198825 0 0 0
19611 5 0.6 5.535305885174463 8.724523603261247 8.953973442378809 0 0 0
19612 5 0.6 8.657955148254173 16.486771580704044 11.359882101495481 0 0 0
19613 5 0.6 13.3565048002555 8.081645758084937 3.8035528044491884 0 0 0
19614 5 0.6 21.359223749756623 10.47858721467886 5.664293961877737 0 0 0
19615 5 0.6 1.7704776229482824 7.557360211409504 4.159502290331534 0 0 0
19616 5 0.6 15.953937256734621 0.5481576593268164 3.3277696898304536 0 0 0
112 1 2.4 20.53550441506925 13.692651560921798 25.95614506536308 0 0 0
113 1 2.4 17.543383275420354 13.274744226709931 25.303759724004816 0 0 0
114 1 2.4 13.743239578335661 14.863384401969174 24.48653582239599 0 0 0
115 1 2.4 7.70780768351638 15.009271002059222 24.937541573320935 0 0 0
116 1 2.4 2.740706814475908 15.269377816715815 23.669115789746073 0 0 0