LAMMPS data file via write_data, version 29 Aug 2024, timestep = 0, units = metal

20300 atoms
5 atom types

0 65.7746053694524 xlo xhi
0 65.7746053694524 ylo yhi
0 65.7746053694524 zlo zhi

Masses

1 28.086
2 15.9994
3 40.078
4 22.99
5 39.1

Atoms # charge

1 1 2.4 6.559341533515164 4.614554587137167 8.559215429999178 0 0 0
2 1 2.4 7.733302459890722 2.994233345431994 6.506729044437343 0 0 0
3 1 2.4 13.764034074702314 2.8336091577020577 3.6548260149401064 0 0 0
4 1 2.4 14.3708711618893 6.880701244253819 12.18957267661624 0 0 0
5 1 2.4 6.305021097461574 5.60033484885197 1.36752096866575 0 0 0
6 1 2.4 2.458245496615965 9.279889608413965 15.515317641861852 0 0 0
7 1 2.4 21.556581696560944 14.942199155970897 6.097913833580859 0 0 0
8 1 2.4 10.699840366037058 4.445951901991789 3.1619170780686283 0 0 0
9 1 2.4 5.287839110882149 11.220082466079358 0.13241317574889194 0 0 0
10 1 2.4 5.3342439613652495 1.8511401021271554 0.723356700116646 0 0 0
11 1 2.4 9.263492387458752 3.0256465254257137 8.271202243261744 0 0 0
12 1 2.4 9.295171730746176 9.263526201529668 3.593959615289537 0 0 0
13 1 2.4 11.917033592823783 5.910244606742687 13.826997651209409 0 0 0
14 1 2.4 18.589932485764514 11.619783345276016 8.89534214980497 0 0 0
15 1 2.4 5.232514022731419 2.2158010890810504 12.542265075158069 0 0 0
16 1 2.4 2.179864358241864 0.5250781860142287 11.191952834520796 0 0 0
17 1 2.4 5.815853852931722 5.992127217183945 8.761318578928764 0 0 0
18 1 2.4 6.535896467811851 5.220967528260723 5.4776846284764575 0 0 0
19 1 2.4 14.797783669625083 12.56723348925904 15.235412665031093 0 0 0
20 1 2.4 15.259019511461373 3.1545936363910965 4.923319046519086 0 0 0
21 1 2.4 1.7696600751533824 12.555256110413684 11.255422519458865 0 0 0
22 1 2.4 1.260155382174818 0.008579248490552284 12.642218641807442 0 0 0
23 1 2.4 14.225848859988268 3.1512718633540353 14.86888498209353 0 0 0
24 1 2.4 1.103691213399328 1.299509416927137 3.685787636195152 0 0 0
25 1 2.4 20.934023976123918 9.776845513754612 14.478336781673356 0 0 0
26 1 2.4 4.72834089600122 13.502152794014979 8.29348439896099 0 0 0
27 1 2.4 18.029915665948142 5.185660523234949 4.044299485347304 0 0 0
28 1 2.4 6.211588072077632 13.862006087790185 5.084098889238505 0 0 0
29 1 2.4 8.629785028453966 7.79213358326205 5.149843305534086 0 0 0
30 1 2.4 1.0687493942136945 6.003802689057377 7.667158247338213 0 0 0
31 1 2.4 4.082750249478838 15.870042651987116 11.78207881796386 0 0 0
32 1 2.4 3.9924001546274344 10.17192198183812 11.293393546459296 0 0 0
33 1 2.4 19.34110750746076 7.894142059179305 9.466558441063535 0 0 0
34 1 2.4 15.73327499574733 15.23926832671862 0.06945851218983899 0 0 0
35 1 2.4 8.821554517677423 7.90627585873133 16.075511403605464 0 0 0
36 1 2.4 10.143913609253064 0.9789130955938069 8.941055282011316 0 0 0
37 1 2.4 10.60627324825958 10.453932282756254 15.268934477010431 0 0 0
38 1 2.4 20.527316172105554 14.797741800209378 11.863534219472946 0 0 0
39 1 2.4 16.526938806467548 2.1020451026175464 8.108956297161459 0 0 0
40 1 2.4 4.3796071634227225 6.274187228461769 13.572341524741663 0 0 0
41 1 2.4 10.594550363178017 10.751218825298618 12.893846908122635 0 0 0
42 1 2.4 14.962185875319932 13.141679085547338 1.075560172921144 0 0 0
43 1 2.4 20.284693474981154 15.06360413643055 7.538653965935589 0 0 0
44 1 2.4 2.5095040751949504 15.71294998254571 2.5097982943663335 0 0 0
45 1 2.4 15.979449364836587 8.891751334377588 3.761277488254906 0 0 0
46 1 2.4 13.345233421687011 1.9338084609155568 8.863750098276702 0 0 0
47 1 2.4 7.428637160261343 12.903761291726633 14.642126964936121 0 0 0
48 1 2.4 8.60588267644743 0.7129356261366134 11.330891237724295 0 0 0
49 1 2.4 1.691290850817702 10.89581008968155 9.378828722307208 0 0 0
50 1 2.4 14.508023790101303 9.893735672544713 5.813074483320231 0 0 0
51 1 2.4 5.9416917845794455 16.162872597994717 0.27957865879495636 0 0 0
52 1 2.4 17.994842970381153 7.690314453890442 4.0154755627022425 0 0 0
53 1 2.4 19.05934168472563 8.027545950451573 15.249176492699071 0 0 0
54 1 2.4 19.842308977679824 12.43776474111816 9.816139853195144 0 0 0
55 1 2.4 14.206137094366229 0.728653900977725 12.409515014476213 0 0 0
56 1 2.4 2.1296062657375425 10.90718726876817 3.2712615227965696 0 0 0
57 1 2.4 6.567063546302128 2.8492127587374583 2.8061271391103615 0 0 0
58 1 2.4 0.23926968282617037 9.154631722848654 15.093406768153516 0 0 0
59 1 2.4 20.843473140855142 0.7048806488886765 7.500099370553691 0 0 0
60 1 2.4 20.640258813774548 5.561164616852874 0.7794854543966625 0 0 0
61 1 2.4 16.589547028943166 1.9647543390252673 2.774280532560923 0 0 0
62 1 2.4 12.222389079295548 7.600686920404029 10.461443753945874 0 0 0
63 1 2.4 10.061969220749273 5.006288270904041 14.96670155459273 0 0 0
64 1 2.4 12.269190693795522 4.900157388060495 7.139298578333062 0 0 0
65 1 2.4 11.937161204134963 15.321981066475097 8.955762840796162 0 0 0
66 1 2.4 5.737531919289423 5.12749588010194 13.0902228906771 0 0 0
67 1 2.4 14.65673657317859 9.874476813323593 11.002454401212363 0 0 0
68 1 2.4 16.51571728237041 10.825705710360026 15.077422115617889 0 0 0
69 1 2.4 17.5843751274374 15.29084189071906 11.796478864726986 0 0 0
70 1 2.4 9.432274342311619 11.435930851063656 10.292924286944224 0 0 0
71 1 2.4 15.60019377769706 14.87981911721658 10.070288401054919 0 0 0
72 1 2.4 0.9393830684035565 2.3059419899973577 14.72446327812417 0 0 0
73 1 2.4 19.91987392331247 0.5796985999534241 8.352774738242845 0 0 0
74 1 2.4 17.489834415572815 4.935626449471425 11.29636538674255 0 0 0
75 1 2.4 16.825105494971694 14.519570713373621 6.639059002042507 0 0 0
76 1 2.4 10.445690194856851 8.293373890656769 10.346202398657118 0 0 0
77 1 2.4 8.203589722062874 14.15960433848445 7.947890229358074 0 0 0
78 1 2.4 8.414456657324733 6.371495334121064 4.664539104205429 0 0 0
79 1 2.4 3.369644726013091 1.683687003506815 14.647159074507554 0 0 0
80 1 2.4 5.244170749848147 0.8065976315877283 6.917687987755233 0 0 0
81 1 2.4 9.264239114858121 15.575893926585152 1.1198536960941319 0 0 0
82 1 2.4 17.098429316364612 4.050661002467637 2.742911090332843 0 0 0
83 1 2.4 11.647191303701524 9.118661821140988 2.518717092485655 0 0 0
84 1 2.4 11.146281357329347 9.474680433879552 0.6344527693705946 0 0 0
85 1 2.4 15.055879703977277 9.263328462723667 0.27056350282500335 0 0 0
86 1 2.4 3.369984214384485 7.389468061523682 12.334772502389574 0 0 0
87 1 2.4 4.680949679268357 6.293237598207602 4.878878995705468 0 0 0
88 1 2.4 3.7688439991958247 2.016123701566661 11.06928696288601 0 0 0
89 1 2.4 13.020950631535477 11.005200048639 6.206918575536594 0 0 0
90 1 2.4 21.88497455027774 9.174040540123396 12.42437185748356 0 0 0
91 1 2.4 20.61263921111895 1.780740370372815 1.4579617550606132 0 0 0
92 1 2.4 2.2275142648686996 12.081794429819661 12.512206479494308 0 0 0
93 1 2.4 20.495979778231202 14.32381290961741 5.267919744016757 0 0 0
94 1 2.4 14.76595292873573 3.784814317505738 7.330842058472025 0 0 0
95 1 2.4 17.857774142257938 6.085708117870764 2.984987555445748 0 0 0
96 1 2.4 13.032314211484884 4.6690721499439976 3.991418352052098 0 0 0
97 1 2.4 6.942627764033466 0.5949047018834522 0.823308398416087 0 0 0
98 1 2.4 0.834330254099917 12.59763696394318 0.029768725765991495 0 0 0
99 1 2.4 6.715827571173474 3.691174732253817 12.120861596285579 0 0 0
100 1 2.4 7.58873582097248 6.923131716256943 1.7978565691365889 0 0 0
101 1 2.4 3.8361493146598438 15.048269424642033 12.906574414151663 0 0 0
102 1 2.4 1.573735130649905 8.374982313088218 0.6722454455241638 0 0 0
103 1 2.4 15.532894312312338 1.945995676898448 16.370473014371626 0 0 0
104 1 2.4 7.796604146478275 14.511993911193729 10.844955503489668 0 0 0
105 1 2.4 11.123058441495909 13.814766238030566 0.419208412730962 0 0 0
106 1 2.4 12.465423211578099 14.249815287208893 11.307381943663456 0 0 0
107 1 2.4 13.23597930095828 7.388751717782238 0.2951832399483546 0 0 0
108 1 2.4 19.79107202295416 6.368136469743534 13.986710880518016 0 0 0
109 1 2.4 14.24572081364553 8.266170133690308 13.554896649533157 0 0 0
110 1 2.4 9.74530366264503 10.551288138539242 7.1636683853670435 0 0 0
111 1 2.4 19.513113744238616 4.720327328738679 10.367338551387753 0 0 0
5251 2 -1.2 21.039678399105913 9.596387596969317 7.153976366033735 0 0 0
5252 2 -1.2 21.08660133383677 8.934887185052059 5.224860710090343 0 0 0
5253 2 -1.2 15.298900359637365 15.685955235742224 9.231326354328182 0 0 0
5254 2 -1.2 2.833451787506079 1.0099051311354634 3.6273536750136364 0 0 0
5255 2 -1.2 2.2468604464776627 8.360041884392894 12.666881841038245 0 0 0
5256 2 -1.2 5.54608681849446 10.465349922338962 9.841386835208228 0 0 0
5257 2 -1.2 20.856132773712844 16.151513979892673 6.699100326111282 0 0 0
5258 2 -1.2 17.27882355610875 10.30480138746696 8.260981389011395 0 0 0
5259 2 -1.2 17.869910330847585 12.734813635674811 3.446902588425637 0 0 0
5260 2 -1.2 3.4838736500390906 14.065657394354242 7.572129099795296 0 0 0
5261 2 -1.2 7.404825132254017 7.342638789318964 14.570458991121665 0 0 0
5262 2 -1.2 11.662501941341725 3.3461271622066477 1.0716243253299444 0 0 0
5263 2 -1.2 21.76706209778753 0.6576126207366274 2.3616146524929618 0 0 0
5264 2 -1.2 18.74621079966472 7.205190287986458 6.584685026522315 0 0 0
5265 2 -1.2 9.506000717064317 0.8376093001180229 1.9339580207962421 0 0 0
5266 2 -1.2 0.9477160928759172 10.809873558059078 12.08485987137168 0 0 0
5267 2 -1.2 16.014226371055198 1.4174465255107225 12.616610516940959 0 0 0
5268 2 -1.2 10.371277798763257 7.36173476518037 6.643498446512312 0 0 0
5269 2 -1.2 20.769352299237124 4.673397594439214 10.914558613712831 0 0 0
5270 2 -1.2 15.568478997018289 8.046343204724545 2.3016022112764265 0 0 0
5271 2 -1.2 14.692143642126176 12.989636290316072 10.901910129697354 0 0 0
5272 2 -1.2 12.751199187100115 15.740443915696813 4.178095178789085 0 0 0
5273 2 -1.2 15.771888888268078 6.476906228409362 0.3910944324316725 0 0 0
5274 2 -1.2 18.42962236459541 14.046397003698749 12.73577020021171 0 0 0
5275 2 -1.2 14.003109295992038 8.71992583748421 9.97278745717961 0 0 0
5276 2 -1.2 3.4009284385450744 1.2722005729341297 5.128284231887516 0 0 0
5277 2 -1.2 16.159903422407268 16.151249929978402 2.261213416948217 0 0 0
5278 2 -1.2 6.462121179045336 14.997191249031967 9.505546738659337 0 0 0
5279 2 -1.2 7.6596463779756565 14.77396661851302 6.921687665531022 0 0 0
5280 2 -1.2 0.03965872893480081 8.798203512673183 10.093566969213402 0 0 0
5281 2 -1.2 17.85051713420343 15.666384484597078 9.17873870511586 0 0 0
5282 2 -1.2 13.56905175868296 14.496092293029704 6.684880498544954 0 0 0
5283 2 -1.2 7.405198587839763 13.619306818947226 4.063020351673844 0 0 0
5284 2 -1.2 19.86134825984081 3.557953173557776 9.402707153308867 0 0 0
5285 2 -1.2 11.659062523516274 11.31443713929654 7.36087707004647 0 0 0
5286 2 -1.2 5.209194932819475 4.939489155757058 10.44226455994074 0 0 0
5287 2 -1.2 0.6388396550127817 15.717406579080473 11.637210884647441 0 0 0
5288 2 -1.2 17.290070961446766 2.016126795064091 11.12127937418696 0 0 0
5289 2 -1.2 21.810549320764114 8.026710124200493 1.2014446908024374 0 0 0
5290 2 -1.2 3.7419843861612474 11.008845015585747 1.6932726800373916 0 0 0
5291 2 -1.2 15.243595945850643 7.02914789466609 7.697422116465081 0 0 0
5292 2 -1.2 14.233838873790182 5.89022309320474 6.198446466194647 0 0 0
5293 2 -1.2 19.19993676300314 3.1232332602544934 4.046320274257395 0 0 0
5294 2 -1.2 6.0785131329082835 13.608086029938587 12.799035591804667 0 0 0
5295 2 -1.2 12.680426030388716 10.198895717362033 4.218728910730615 0 0 0
5296 2 -1.2 3.131555380914132 12.366991461892013 4.272532549462307 0 0 0
5297 2 -1.2 18.958061987796913 15.959419275266162 1.119062771498814 0 0 0
5298 2 -1.2 7.334169987875258 3.784523865662908 2.4492179360276056 0 0 0
5299 2 -1.2 8.023637239877429 15.330083242530353 13.579825062568354 0 0 0
5300 2 -1.2 10.825628771097222 13.784303925637886 14.635966984579031 0 0 0
5301 2 -1.2 19.32902813508628 2.1999466697243446 9.17546042481494 0 0 0
5302 2 -1.2 9.23602387611821 1.784614011099859 0.7876360850354207 0 0 0
5303 2 -1.2 20.92636946896403 12.676754416483913 14.264686188783765 0 0 0
5304 2 -1.2 16.069723347399748 13.310652775983467 12.70834444651881 0 0 0
5305 2 -1.2 5.452037390776135 8.367147127301225 0.5354886624684131 0 0 0
5306 2 -1.2 5.158363838830848 5.691162291796858 15.088431045995627 0 0 0
5307 2 -1.2 7.600204916750057 2.3604083416388164 9.295960143789125 0 0 0
5308 2 -1.2 2.8341494171195074 12.734966044023427 6.008429703608957 0 0 0
5309 2 -1.2 8.939337900878833 14.2534362412647 6.390151390145017 0 0 0
5310 2 -1.2 16.69989113277121 14.829157032325154 13.662497433714806 0 0 0
5311 2 -1.2 15.208805463009567 14.27695110974665 6.956913749564626 0 0 0
5312 2 -1.2 1.236697973110473 0.40753732075983173 8.920791587441915 0 0 0
5313 2 -1.2 10.543391144061033 5.988092928991368 6.731642295751279 0 0 0
5314 2 -1.2 6.39082923362637 0.7363612426234135 10.397595314659137 0 0 0
5315 2 -1.2 8.140639162747934 8.54323984355503 0.26852911477769614 0 0 0
5316 2 -1.2 18.61295490621008 3.9099715572041784 6.0611978476762625 0 0 0
5317 2 -1.2 0.0749966383061854 10.750997992462299 9.182309428124293 0 0 0
5318 2 -1.2 2.0430991522970716 4.023449802730133 5.8265146882769 0 0 0
5319 2 -1.2 12.34800976166338 14.120123654109639 2.1420816364117066 0 0 0
5320 2 -1.2 10.739101840895987 6.567506161464075 10.288245785569085 0 0 0
5321 2 -1.2 14.163906535805912 14.480315241737427 4.6184009070750305 0 0 0
5322 2 -1.2 5.459916406214828 9.240548866511986 12.061522189846471 0 0 0
5323 2 -1.2 0.6696960973552176 8.124790072782842 5.266006278027394 0 0 0
5324 2 -1.2 15.767866637149659 4.649537050591011 4.53803037367446 0 0 0
5325 2 -1.2 11.635703861340179 13.37303416240003 8.758620038423382 0 0 0
5326 2 -1.2 2.560168947296934 12.167585597691625 7.363046775634811 0 0 0
5327 2 -1.2 15.14934911624188 1.6132115270084781 14.108722217102578 0 0 0
5328 2 -1.2 14.672185775000694 6.430790359592095 14.616951654051608 0 0 0
5329 2 -1.2 3.1195572664473885 8.03849772769858 1.9918805747838602 0 0 0
5330 2 -1.2 8.559010034021322 2.2196988039564087 12.276553615851142 0 0 0
5331 2 -1.2 6.8026781240860155 16.34709940539607 5.173078289070366 0 0 0
5332 2 -1.2 1.6676194391143342 7.698025807894184 2.070991564671545 0 0 0
5333 2 -1.2 16.148159403531384 16.093340791355875 15.601401129926577 0 0 0
5334 2 -1.2 8.59410462909982 0.08310996320366265 15.562438805457708 0 0 0
5335 2 -1.2 19.728403216934822 5.487199613996463 7.367184466276127 0 0 0
5336 2 -1.2 18.36283072284816 9.647565438328256 12.230086282845697 0 0 0
5337 2 -1.2 16.319696898876924 5.041388807947898 12.929979325645766 0 0 0
5338 2 -1.2 18.589847491156917 10.191278975373741 7.753357052411086 0 0 0
5339 2 -1.2 7.236341684588775 3.949364766047711 10.396805186409694 0 0 0
5340 2 -1.2 11.1853589069203 8.505002714518268 15.363155088462763 0 0 0
5341 2 -1.2 0.10186249959299735 1.863291053744138 7.620584418386601 0 0 0
5342 2 -1.2 7.14622072294798 2.102285966615439 12.157157509742174 0 0 0
5343 2 -1.2 14.758743640176222 14.167512236775382 9.30672606616085 0 0 0
5344 2 -1.2 11.940957599312325 13.353389442974757 7.462847505133946 0 0 0
5345 2 -1.2 16.22555037821947 1.3113449849497276 5.282363283516021 0 0 0
5346 2 -1.2 6.79028465452202 5.373872551671627 10.142803686878235 0 0 0
5347 2 -1.2 9.201074828562344 6.367420064744716 1.9460920653777674 0 0 0
5348 2 -1.2 4.35247094271203 10.617963330016913 9.605320269884041 0 0 0
5349 2 -1.2 20.006740096855598 13.498159211347987 6.947945884288054 0 0 0
5350 2 -1.2 4.500891681254742 5.690311978176627 0.7972100307787146 0 0 0
5351 2 -1.2 8.332289904550255 6.661594211957239 13.035581557344393 0 0 0
5352 2 -1.2 1.9489359083762832 0.012338092897135701 10.04251121380253 0 0 0
5353 2 -1.2 6.570996667940148 3.1785827594691 13.460878401818627 0 0 0
5354 2 -1.2 18.210450062565933 13.795417483611859 4.097719744798526 0 0 0
5355 2 -1.2 17.478653137570948 14.335703180475738 7.783885951570223 0 0 0
5356 2 -1.2 6.3010223691750955 4.168313907460626 6.897124223935154 0 0 0
5357 2 -1.2 5.291509315867331 7.130612282579967 2.869650179221919 0 0 0
5358 2 -1.2 12.93510224927541 15.192757531605723 7.657789483171965 0 0 0
5359 2 -1.2 1.6328574103238724 15.424056251673559 14.39366086556783 0 0 0
5360 2 -1.2 3.7146558785509147 12.12085519488991 11.260431320599169 0 0 0
5361 2 -1.2 9.874428328111403 10.187563439931173 11.080958238629266 0 0 0
5362 2 -1.2 8.997944607857415 12.637279888475273 8.56234764208978 0 0 0
5363 2 -1.2 21.806284245411806 2.1181940474325094 16.425850324434414 0 0 0
5364 2 -1.2 21.223641738538056 10.061781068722436 1.8440171558374931 0 0 0
5365 2 -1.2 20.55052790846808 10.269762628485633 11.336007514928767 0 0 0
5366 2 -1.2 17.368343797303126 2.0555716438746185 16.324799638201554 0 0 0
5367 2 -1.2 6.645738261166164 9.64303808952555 1.9135403251864815 0 0 0
5368 2 -1.2 20.538839021229556 11.138450918988905 9.417713984998523 0 0 0
5369 2 -1.2 5.467291457230667 1.643820550813913 2.3577423594281646 0 0 0
5370 2 -1.2 6.618499863154228 12.269520289100878 10.439665685184233 0 0 0
5371 2 -1.2 8.598760679647079 12.562746141522107 5.5911646198375955 0 0 0
5372 2 -1.2 20.12725813178486 0.03200581446666249 11.72488078557723 0 0 0
5373 2 -1.2 7.8826797629703345 14.143562165273842 1.4255065564920841 0 0 0
5374 2 -1.2 17.34553066267872 13.282850228177892 5.85316106438964 0 0 0
5375 2 -1.2 9.952817552979969 12.183158416896166 5.996997668543162 0 0 0
5376 2 -1.2 3.22492368788155 3.017597796430011 4.545424751392063 0 0 0
5377 2 -1.2 2.1493466691823233 13.811121117940383 4.930280426482593 0 0 0
5378 2 -1.2 21.137847415911285 15.157918808581954 14.094819947767448 0 0 0
5379 2 -1.2 8.778202336583687 2.806827280276159 13.95404970402657 0 0 0
5380 2 -1.2 3.154501658442766 3.377445668927544 1.2449238278055414 0 0 0
5381 2 -1.2 20.94605859998607 14.718952656569131 3.146504446899308 0 0 0
5382 2 -1.2 0.5175219969409715 15.744293819191105 3.108817837890284 0 0 0
5383 2 -1.2 9.819378193687665 5.804429352523033 11.30436495669494 0 0 0
5384 2 -1.2 8.762518396501175 2.3052677913298076 3.3932062726146737 0 0 0
5385 2 -1.2 5.737246674323454 0.3333837370749578 12.339012615361632 0 0 0
5386 2 -1.2 2.0745042463173116 5.65202204528275 15.00436157790107 0 0 0
5387 2 -1.2 7.8236716670430795 9.013574457677935 12.229744344179311 0 0 0
5388 2 -1.2 18.73888650038394 15.654903014829781 13.533492434530196 0 0 0
5389 2 -1.2 2.1255388373051747 8.320522975416178 6.218632363897992 0 0 0
5390 2 -1.2 4.3481466927356225 3.714899345987238 16.21281239717934 0 0 0
5391 2 -1.2 19.211675513744787 3.092600866760555 15.404525777252372 0 0 0
5392 2 -1.2 18.773754259403386 9.705880529573886 5.712744306330308 0 0 0
5393 2 -1.2 11.968262645348092 11.847060579942616 13.816713763120342 0 0 0
5394 2 -1.2 6.340593071262243 11.487050191629617 14.385811376183812 0 0 0
5395 2 -1.2 5.06441058519103 5.209357234234127 7.6672890318335085 0 0 0
5396 2 -1.2 13.431653243368329 7.350433330837745 14.024107558371897 0 0 0
5397 2 -1.2 11.91745645248234 13.017246888137567 14.530990129420198 0 0 0
5398 2 -1.2 12.609674987589637 5.029016043376601 2.304741284193011 0 0 0
5399 2 -1.2 19.533234157808252 14.011091346335222 11.325035216461188 0 0 0
5400 2 -1.2 5.002328594194026 14.191020458832162 9.76178195773585 0 0 0
5401 2 -1.2 20.577702966354426 6.578722938114662 1.484794843651883 0 0 0
5402 2 -1.2 9.267549555280834 5.439860741690405 1.0380220517887453 0 0 0
5403 2 -1.2 6.117294870636108 7.6666983269678735 1.7468625917882483 0 0 0
5404 2 -1.2 8.29323520396012 8.015295088056217 6.672748322313362 0 0 0
5405 2 -1.2 4.916032175494337 10.84842950110322 2.3485409197813065 0 0 0
5406 2 -1.2 15.725156188314804 10.335682547160145 1.083789396771829 0 0 0
5407 2 -1.2 1.2375972313732053 15.52137094250065 5.5965353601771755 0 0 0
5408 2 -1.2 9.357823752244805 9.862365617742885 4.773406384612011 0 0 0
5409 2 -1.2 12.809575351948462 10.249565980113001 0.7639651633910518 0 0 0
5410 2 -1.2 19.458761239428306 12.0622541542185 12.971821298048749 0 0 0
5411 2 -1.2 17.763770198140435 4.751948201861812 15.622510176268845 0 0 0
5412 2 -1.2 7.749700293419683 15.49419998885842 9.356555081383068 0 0 0
5413 2 -1.2 17.58348190302609 0.27841920983256774 9.394678424846052 0 0 0
5414 2 -1.2 11.482598832600406 5.346425541669655 9.263144169911444 0 0 0
5415 2 -1.2 14.645260984119279 14.32806760184468 11.00192663829938 0 0 0
5416 2 -1.2 7.976160569106656 6.684942031577986 10.79475370651283 0 0 0
5417 2 -1.2 18.378522320102526 10.277819014653192 15.190479094177032 0 0 0
5418 2 -1.2 17.313792144767195 6.050422644812247 1.9134901860251707 0 0 0
5419 2 -1.2 6.43035497280038 7.299405845705364 11.475034741325793 0 0 0
5420 2 -1.2 21.30555776487729 5.557722993761929 8.710731534321523 0 0 0
5421 2 -1.2 10.762998832882223 13.556618257424503 2.8500527504900273 0 0 0
5422 2 -1.2 18.55102425155763 15.435144724752533 3.433811795535087 0 0 0
5423 2 -1.2 17.30562117667999 0.2701727420308638 2.3455048205118376 0 0 0
5424 2 -1.2 11.533402023854789 4.125791151222298 15.73781919032812 0 0 0
5425 2 -1.2 19.904200488869744 0.25470739889048943 5.517904138049281 0 0 0
5426 2 -1.2 4.375873587683263 9.298585144816006 0.8581711037021075 0 0 0
5427 2 -1.2 16.281041075683095 13.099022083772034 7.65999039939279 0 0 0
5428 2 -1.2 8.716036729270018 10.383151070700064 9.592000098753381 0 0 0
5429 2 -1.2 13.259781344013506 12.782057130248234 8.173051450525385 0 0 0
5430 2 -1.2 11.877742561281492 3.29193116998907 11.044058296828009 0 0 0
5431 2 -1.2 12.55923110146741 12.288491789976598 0.42065405614862883 0 0 0
5432 2 -1.2 14.582586818079644 13.3570448849326 3.125255121168645 0 0 0
5433 2 -1.2 20.088699401530164 9.721480118251234 4.796609728714184 0 0 0
5434 2 -1.2 6.907775135585607 6.798226703799429 7.306684018182885 0 0 0
5435 2 -1.2 1.5775867493506919 7.33453244776222 9.876387185815524 0 0 0
5436 2 -1.2 9.764666353116512 7.107000045500699 0.666413804696245 0 0 0
5437 2 -1.2 15.142069718616861 10.817586382239814 10.165085138117671 0 0 0
5438 2 -1.2 1.4525819180008677 11.165703773741305 7.034206222393959 0 0 0
5439 2 -1.2 16.539374696763627 13.788237200419342 14.967910867058244 0 0 0
5440 2 -1.2 7.119625619257985 15.540615835040306 0.1724174269065089 0 0 0
5441 2 -1.2 13.216056626194646 1.4213838126502307 13.015990101206551 0 0 0
5442 2 -1.2 3.7966382466271082 8.731802692977448 12.263281623645799 0 0 0
5443 2 -1.2 14.257566826050533 10.038284516195564 1.585091053427455 0 0 0
5444 2 -1.2 5.205027593608734 0.6736244102893112 8.373340186640734 0 0 0
5445 2 -1.2 8.527748833574593 3.009545851422129 0.7655957428233772 0 0 0
5446 2 -1.2 10.418706964439835 15.208457858036006 8.434754319108484 0 0 0
5447 2 -1.2 7.322238980862658 0.5839051132553785 13.277038434739424 0 0 0
5448 2 -1.2 3.5106685140284566 3.9846988774618555 12.285767398859031 0 0 0
5449 2 -1.2 14.026905948398278 14.022630612435684 7.941664458580399 0 0 0
5450 2 -1.2 16.762014778783108 6.547589643066613 4.424347926689458 0 0 0
5451 2 -1.2 17.263199005051156 10.8013932402289 1.1053688384955347 0 0 0
5452 2 -1.2 17.262982245830266 7.158321014715965 8.148073602788687 0 0 0
5453 2 -1.2 13.964120722738047 11.185028852184631 2.9577727721518157 0 0 0
5454 2 -1.2 8.156555023251611 12.94268585102391 11.101141379750743 0 0 0
5455 2 -1.2 3.5269324389360044 14.234063320811615 9.662504182445772 0 0 0
5456 2 -1.2 16.128599893114522 16.229676062415315 4.877113895077981 0 0 0
5457 2 -1.2 4.3097506926972 16.13938039474146 0.09375079801595351 0 0 0
5458 2 -1.2 19.59201710225426 15.356958108651266 4.843462370607407 0 0 0
5459 2 -1.2 4.321173447270707 10.797800403308148 6.495164080868132 0 0 0
5460 2 -1.2 14.245559676121 5.557931758895402 12.219447132611217 0 0 0
5461 2 -1.2 4.927696161609985 9.561228038444796 8.198724569466581 0 0 0
5462 2 -1.2 5.146365693735418 1.36215378125391 4.155932965029787 0 0 0
5463 2 -1.2 1.632822953050522 14.844932858469933 15.708385971204159 0 0 0
5464 2 -1.2 18.316043993890272 12.598276276535756 10.774695469178665 0 0 0
5465 2 -1.2 4.015316844844018 0.6851022352428039 3.957328071634192 0 0 0
5466 2 -1.2 18.042041593927504 11.662315963951693 0.22040516795561801 0 0 0
5467 2 -1.2 17.44723876305842 12.551153704020278 8.080883634961502 0 0 0
5468 2 -1.2 2.892755664667776 11.111088045991284 9.952145100147604 0 0 0
5469 2 -1.2 0.8812436633089854 11.776041107326963 4.135334161991294 0 0 0
5470 2 -1.2 15.20072742236 10.05853265139175 13.022472448498764 0 0 0
5471 2 -1.2 2.9590021770362775 6.347930142705678 3.2519992025337707 0 0 0
5472 2 -1.2 16.445322267433934 11.639586323129201 12.850964081034963 0 0 0
5473 2 -1.2 19.348814879735134 5.882737135711743 11.93116962030132 0 0 0
5474 2 -1.2 6.450127505738268 10.743340085518112 12.025078156057504 0 0 0
5475 2 -1.2 8.728121216635293 16.163314110523917 7.700079737044066 0 0 0
5476 2 -1.2 12.05381181596073 2.6306529385703743 12.849130280261589 0 0 0
5477 2 -1.2 17.873525128537217 7.714113035903989 9.350611247673118 0 0 0
5478 2 -1.2 12.42604813491752 10.218955547387948 12.491265308987806 0 0 0
5479 2 -1.2 10.770963271730139 15.865731235430738 5.094706124380693 0 0 0
5480 2 -1.2 16.061250839884863 2.4624297122334755 13.829396122464109 0 0 0
5481 2 -1.2 3.3699692982137104 7.138771979310202 8.460462385382026 0 0 0
5482 2 -1.2 12.069367850644563 0.9825063919448702 3.5589816848814326 0 0 0
5483 2 -1.2 2.093930521943885 3.2764096538359624 13.272357789356166 0 0 0
5484 2 -1.2 0.2857624988995494 1.2641270347016145 0.9855378969112253 0 0 0
5485 2 -1.2 16.542819260208564 5.906409650047858 15.147485850671202 0 0 0
5486 2 -1.2 15.157850016550004 12.938632266758257 8.74715599637923 0 0 0
5487 2 -1.2 17.901151500132737 11.608302855626716 13.266568722403763 0 0 0
5488 2 -1.2 4.56379565433611 10.523701645494748 3.9397173727119776 0 0 0
17501 3 1.2 5.867048907612993 11.357541442422963 8.294240651882145 0 0 0
17502 3 1.2 5.252128419756142 3.0019450363512967 4.567907586251303 0 0 0
17503 3 1.2 3.135297073255759 9.479009278159072 7.614733205827419 0 0 0
17504 3 1.2 15.642593559755387 3.9722971075235676 1.1730361544162033 0 0 0
17505 3 1.2 20.303866880164364 8.437998203393427 7.386627893967657 0 0 0
17506 3 1.2 19.180548895750594 6.144375193992254 2.3834553875490716 0 0 0
17507 3 1.2 1.855646041477355 10.680073989465345 1.1054877084314225 0 0 0
17508 3 1.2 20.159132855469352 9.553643824122547 12.280045194331274 0 0 0
17509 3 1.2 18.307525145171315 0.9711965959705788 10.799056853323606 0 0 0
17510 3 1.2 21.14484711236276 1.2526063295857301 4.6808631225977 0 0 0
17511 3 1.2 2.274058322736137 5.0525105744101015 2.5296921475351026 0 0 0
17512 3 1.2 9.831713713775057 15.803699352966358 14.918543456784176 0 0 0
17513 3 1.2 15.95603109923477 9.948593581326184 6.965472201176418 0 0 0
17514 3 1.2 16.433605201802983 12.034680372079288 9.96150247044213 0 0 0
17515 3 1.2 3.769049609574494 5.471817335856378 11.935657243696442 0 0 0
17516 3 1.2 19.051718847628543 11.459733598578692 15.698069555449049 0 0 0
17517 3 1.2 4.908037506131935 8.031232266126338 11.430478669044216 0 0 0
18201 4 0.6 13.565157811136155 14.825121243326894 11.60759710941112 0 0 0
18202 4 0.6 6.664767343974238 0.5918059975768916 14.517990487503418 0 0 0
18203 4 0.6 4.78696389744151 12.159857459167178 9.025433334131653 0 0 0
18204 4 0.6 2.3605810874358806 12.199298755049963 14.16923954160259 0 0 0
18205 4 0.6 6.676882306883498 6.884171505167505 4.739642483487283 0 0 0
18206 4 0.6 4.720027412631436 5.326648536943404 5.744052583069603 0 0 0
18207 4 0.6 2.6455605026840927 0.30213886171862636 13.403235457118491 0 0 0
18208 4 0.6 2.559815492244075 6.227066524296222 10.909931047844877 0 0 0
18209 4 0.6 8.054966589153672 15.685613572734022 3.4889961754957977 0 0 0
18210 4 0.6 5.972938283256211 15.125932902762118 2.704543789374535 0 0 0
18211 4 0.6 19.14904533050029 2.8607969877510575 0.17844806231661328 0 0 0
18212 4 0.6 3.6479610847132933 9.349746446683737 5.656301791776332 0 0 0
18213 4 0.6 11.087023606970908 0.1487507013923168 0.6180342614776239 0 0 0
18214 4 0.6 6.230480673454551 2.5169305824056596 8.981045934031716 0 0 0
18215 4 0.6 21.696843841006167 4.442267546553017 7.013560588092398 0 0 0
18216 4 0.6 12.613685630435523 6.66128498472902 7.8383995326476885 0 0 0
18217 4 0.6 6.724043685945943 10.230204974219328 4.236565955652883 0 0 0
18218 4 0.6 21.705087215310442 11.439448739586284 3.6434713173100532 0 0 0
18219 4 0.6 1.1352585782055336 5.65536675920669 5.444363128112863 0 0 0
18220 4 0.6 4.496765843915458 2.1219691863008014 14.100003914371126 0 0 0
18221 4 0.6 1.7774442948045022 11.835425047877584 15.582142454477582 0 0 0
18222 4 0.6 10.880093499418246 8.328517644778579 9.035829598874875 0 0 0
18223 4 0.6 0.8729521100793951 3.969116716507651 13.49480971934881 0 0 0
18224 4 0.6 2.638400097509712 11.506419834813146 11.058377514485022 0 0 0
18225 4 0.6 12.719533136663033 9.72597717528208 14.604041876703725 0 0 0
18226 4 0.6 7.408600761181308 5.025028800847906 1.065761473869542 0 0 0
18227 4 0.6 7.221108598785127 11.025313141952342 15.374651045599212 0 0 0
18228 4 0.6 17.595960122168183 12.67603222266317 2.1267746435853083 0 0 0
18229 4 0.6 15.063260850101914 1.7690406405789445 2.1444192178358117 0 0 0
18230 4 0.6 9.7133742361248 0.11025956865075906 11.443619968640327 0 0 0
18231 4 0.6 6.344378011310511 9.325932213410917 0.058115392203631655 0 0 0
18232 4 0.6 11.416200953258661 7.5655587256554275 12.033322939281398 0 0 0
18233 4 0.6 21.552047609447005 4.512402401418526 1.8271696625484795 0 0 0
18234 4 0.6 9.619658722356757 3.6241485360182817 3.779872746334325 0 0 0
18235 4 0.6 3.2525463227772033 6.848984901511989 5.329843170298973 0 0 0
18236 4 0.6 11.001584822147743 11.220412306414214 5.676039683668744 0 0 0
18237 4 0.6 1.9215884722371233 0.8062164882014394 0.5118110943988733 0 0 0
18238 4 0.6 12.8013222070929 3.0881711315846636 6.728572045495335 0 0 0
20161 5 0.6 14.43749419271229 8.445689005547909 5.096728965412842 0 0 0
20162 5 0.6 13.5804018620099 7.933462800548394 12.584204936846055 0 0 0
20163 5 0.6 1.428908209145943 7.929311265740364 8.583964787727703 0 0 0
112 1 2.4 20.386357623194403 13.593203550719865 25.76762884059987 0 0 0
113 1 2.4 17.415967883946465 13.17833142503947 25.11998169211786 0 0 0