LAMMPS data file via write_data, version 29 Aug 2024, timestep = 0, units = metal

20300 atoms
5 atom types

0 66.1757959317457 xlo xhi
0 66.1757959317457 ylo yhi
0 66.1757959317457 zlo zhi

Masses

1 28.086
2 15.9994
3 40.078
4 22.99
5 39.1

Atoms # charge

1 1 2.4 6.599350073335715 4.642700947562258 8.611422150691197 0 0 0
2 1 2.4 7.780471545054228 3.012496596921589 6.546416675695109 0 0 0
3 1 2.4 13.847987456692781 2.85089268597125 3.677118534914676 0 0 0
4 1 2.4 14.458525931533277 6.922669909601926 12.263922670641714 0 0 0
5 1 2.4 6.343478416135757 5.634493951356979 1.3758621286512067 0 0 0
6 1 2.4 2.473239503611564 9.336492063253601 15.609952934220269 0 0 0
7 1 2.4 21.6880655281003 15.033338726442063 6.135107906672881 0 0 0
8 1 2.4 10.765103775050115 4.473069874550807 3.1812031122964255 0 0 0
9 1 2.4 5.320092153440068 11.28851907878512 0.1332208266064737 0 0 0
10 1 2.4 5.366780049149421 1.8624310849355596 0.727768796238369 0 0 0
11 1 2.4 9.319994827858801 3.0441013808219277 8.3216522347163 0 0 0
12 1 2.4 9.351867398509205 9.320028848177797 3.6158808821799813 0 0 0
13 1 2.4 11.989721241516138 5.946293996073896 13.911335077961846 0 0 0
14 1 2.4 18.703321314554383 11.690657923509253 8.949599067027448 0 0 0
15 1 2.4 5.264429611296274 2.2293163124695496 12.618766307657612 0 0 0
16 1 2.4 2.1931603864383677 0.528280887292507 11.26021787124159 0 0 0
17 1 2.4 5.851327508218097 6.028676047451978 8.81475802272881 0 0 0
18 1 2.4 6.57576200503984 5.252812689271005 5.511095629026291 0 0 0
19 1 2.4 14.88804238144502 12.643887015976642 15.328340683975817 0 0 0
20 1 2.4 15.35209151977616 3.1738350014693335 4.953348708050732 0 0 0
21 1 2.4 1.7804540725727651 12.631836581408232 11.324074687937362 0 0 0
22 1 2.4 1.267841668447642 0.008631577402396689 12.719329538589761 0 0 0
23 1 2.4 14.312619069724695 3.170492967360616 14.959577374592639 0 0 0
24 1 2.4 1.1104231503834379 1.3074357421518044 3.708269005805095 0 0 0
25 1 2.4 21.06171053239998 9.8364791387241 14.566647035180539 0 0 0
26 1 2.4 4.757181293174658 13.584508837676118 8.344070299867589 0 0 0
27 1 2.4 18.139888686135684 5.217290330050103 4.068967589024936 0 0 0
28 1 2.4 6.249475498347596 13.94655704762698 5.115109223404274 0 0 0
29 1 2.4 8.682422186648816 7.839661507392861 5.181254646124646 0 0 0
30 1 2.4 1.0752682044445856 6.040422733574429 7.713923887529646 0 0 0
31 1 2.4 4.107652882631728 15.966841580683178 11.85394331337835 0 0 0
32 1 2.4 4.016751699633871 10.233965365855022 11.362277318268402 0 0 0
33 1 2.4 19.45907810952988 7.942292181460633 9.524299477784623 0 0 0
34 1 2.4 15.829239713540838 15.332219863175485 0.06988217264975319 0 0 0
35 1 2.4 8.875361369081075 7.9544999908199046 16.173563583819075 0 0 0
36 1 2.4 10.205786156901079 0.9848839515655243 8.995591025341696 0 0 0
37 1 2.4 10.670965946975212 10.517695781558526 15.362066961409894 0 0 0
38 1 2.4 20.652522024291237 14.888000256647858 11.93589555007405 0 0 0
39 1 2.4 16.62774445684752 2.114866474208423 8.158416673520948 0 0 0
40 1 2.4 4.406320467906238 6.312456476722269 13.655125682812441 0 0 0
41 1 2.4 10.659171558448952 10.816795615940421 12.972492605229254 0 0 0
42 1 2.4 15.053447354286467 13.221836428828905 1.0821205253266166 0 0 0
43 1 2.4 20.40841945608684 15.155484213547133 7.584635797472854 0 0 0
44 1 2.4 2.524810732610068 15.808790728428948 2.525106746363937 0 0 0
45 1 2.4 16.076915617044516 8.94598634951107 3.7842193063316274 0 0 0
46 1 2.4 13.42663233955674 1.9456036773131995 8.917814320570104 0 0 0
47 1 2.4 7.473947947040799 12.982467461368367 14.731436252574367 0 0 0
48 1 2.4 8.658374042843336 0.7172841591779306 11.400003725764519 0 0 0
49 1 2.4 1.701606837111041 10.962268811128329 9.436034653800375 0 0 0
50 1 2.4 14.59651511877476 9.95408226611763 5.848531185911094 0 0 0
51 1 2.4 5.977932985186267 16.26145763563108 0.2812839418399421 0 0 0
52 1 2.4 18.104602065538256 7.737221334785261 4.03996785558377 0 0 0
53 1 2.4 19.17559366319795 8.076509766435068 15.342188463766814 0 0 0
54 1 2.4 19.96333664559571 12.513628576440817 9.876013153006411 0 0 0
55 1 2.4 14.292787072680676 0.7330983072437673 12.485206541296941 0 0 0
56 1 2.4 2.142595745954346 10.973715385034568 3.2912145007333815 0 0 0
57 1 2.4 6.607119186346764 2.8665914607813625 2.8232430414937 0 0 0
58 1 2.4 0.2407291022792189 9.210470170344431 15.185468625677776 0 0 0
59 1 2.4 20.970607384573594 0.7091800507974967 7.545846039299582 0 0 0
60 1 2.4 20.766153556781596 5.595084801506341 0.784239906452928 0 0 0
61 1 2.4 16.690734556612068 1.9767383090333612 2.7912021873631936 0 0 0
62 1 2.4 12.296939236149354 7.6470471203973895 10.52525306877902 0 0 0
63 1 2.4 10.123341950646715 5.0368240011471155 15.05799057683218 0 0 0
64 1 2.4 12.344026315927792 4.93004577563499 7.182844551660199 0 0 0
65 1 2.4 12.00997162068969 15.415437107221807 9.010388292513932 0 0 0
66 1 2.4 5.772527851898157 5.158770913129353 13.170066378183515 0 0 0
67 1 2.4 14.74613497175734 9.93470593796581 11.069563596973175 0 0 0
68 1 2.4 16.616454487344484 10.891736831896457 15.169386475153331 0 0 0
69 1 2.4 17.69163058424063 15.384107998841156 11.86843119286697 0 0 0
70 1 2.4 9.489806264028841 11.505684025601381 10.355705721498285 0 0 0
71 1 2.4 15.695346769925658 14.970578202199722 10.131711873584807 0 0 0
72 1 2.4 0.945112811961952 2.320007025559128 14.814274774047812 0 0 0
73 1 2.4 20.04137469667654 0.5832344570820168 8.403722279092724 0 0 0
74 1 2.4 17.59651322366581 4.96573117969992 11.365267285217225 0 0 0
75 1 2.4 16.927729805619503 14.608132472217118 6.679553776570867 0 0 0
76 1 2.4 10.509403421249884 8.343959117520727 10.409308801722597 0 0 0
77 1 2.4 8.25362731263345 14.24597049141686 7.996368187260691 0 0 0
78 1 2.4 8.465780425499137 6.410358110741116 4.6929903439436815 0 0 0
79 1 2.4 3.390197789840148 1.6939566103234378 14.736499055372422 0 0 0
80 1 2.4 5.2761574383288465 0.811517453691464 6.9598822528213375 0 0 0
81 1 2.4 9.320746109903288 15.670898702478944 1.1266842157376733 0 0 0
82 1 2.4 17.20272075883293 4.075367908060023 2.759641408005904 0 0 0
83 1 2.4 11.718233056092481 9.174280871119887 2.534079944469581 0 0 0
84 1 2.4 11.21426782201596 9.53247101049292 0.6383225981876982 0 0 0
85 1 2.4 15.147712666111081 9.31982990326889 0.27221379815136376 0 0 0
86 1 2.4 3.390539348912382 7.434539937363896 12.410008139125022 0 0 0
87 1 2.4 4.709501014899243 6.331623043722457 4.908637596257361 0 0 0
88 1 2.4 3.7918319690170064 2.0284209977182854 11.136803802187165 0 0 0
89 1 2.4 13.100371594627793 11.0723259914077 6.244777520329059 0 0 0
90 1 2.4 22.018461405824546 9.229997371215278 12.500154003247065 0 0 0
91 1 2.4 20.738365489049585 1.7916019517760846 1.466854556363326 0 0 0
92 1 2.4 2.2411009324803013 12.155487033121277 12.588524370340513 0 0 0
93 1 2.4 20.620994494865283 14.411180648627248 5.300051288894099 0 0 0
94 1 2.4 14.856017489746796 3.807899697884486 7.3755563464712 0 0 0
95 1 2.4 17.96669718952211 6.1228277425047315 3.0031944124702967 0 0 0
96 1 2.4 13.111804486449222 4.69755103888149 4.015763908578253 0 0 0
97 1 2.4 6.9849741486419425 0.5985333082508937 0.8283301474246298 0 0 0
98 1 2.4 0.8394192306418593 12.674475935895089 0.029950299365129496 0 0 0
99 1 2.4 6.756790593671442 3.713688960321591 12.194792488793091 0 0 0
100 1 2.4 7.635023125533416 6.96535918520905 1.8088225503666273 0 0 0
101 1 2.4 3.859547811571301 15.140055968067148 12.985297742363352 0 0 0
102 1 2.4 1.5833340887648157 8.426065308486084 0.676345789825343 0 0 0
103 1 2.4 15.627636813133075 1.9578652289155218 16.47032430556148 0 0 0
104 1 2.4 7.844159338697741 14.60050945552161 10.911104038658403 0 0 0
105 1 2.4 11.190903258587543 13.899029059583881 0.4217653639718998 0 0 0
106 1 2.4 12.541455749050373 14.33673167956943 11.376351037351858 0 0 0
107 1 2.4 13.316711826047971 7.433819224301697 0.2969837027462574 0 0 0
108 1 2.4 19.91178717234468 6.406978759054225 14.072022474122724 0 0 0
109 1 2.4 14.332612231866856 8.316589431918244 13.637574403023402 0 0 0
110 1 2.4 9.804744898881642 10.615645456951754 7.207363001723387 0 0 0
111 1 2.4 19.632133494051967 4.74911884735879 10.430573873888797 0 0 0
5251 2 -1.2 21.168009391895534 9.654920523383506 7.197611866160277 0 0 0
5252 2 -1.2 21.21521853189457 8.989385306229124 5.256729617465936 0 0 0
5253 2 -1.2 15.392215620189312 15.781631327841707 9.287632598812712 0 0 0
5254 2 -1.2 2.850734355899693 1.0160650222537353 3.649478628137129 0 0 0
5255 2 -1.2 2.2605651156406883 8.41103375101917 12.744143170388144 0 0 0
5256 2 -1.2 5.579915036493508 10.529183062748638 9.901414128355572 0 0 0
5257 2 -1.2 20.98334423454565 16.25002973592168 6.739961321195868 0 0 0
5258 2 -1.2 17.384215308735843 10.367655266098948 8.311369038620784 0 0 0
5259 2 -1.2 17.978907402490876 12.812489313309047 3.4679268846544504 0 0 0
5260 2 -1.2 3.5051234503346174 14.151450520247879 7.618315112075275 0 0 0
5261 2 -1.2 7.4499906781635055 7.387425031183237 14.659331141744014 0 0 0
5262 2 -1.2 11.733637080584485 3.3665367812407747 1.0781606711313585 0 0 0
5263 2 -1.2 21.89982974927602 0.661623712488567 2.3760192620688296 0 0 0
5264 2 -1.2 18.86055284412614 7.2491381661505425 6.6248481483453405 0 0 0
5265 2 -1.2 9.56398233096254 0.8427182771192366 1.945754149430641 0 0 0
5266 2 -1.2 0.9534966635089092 10.875808111778062 12.158571172257464 0 0 0
5267 2 -1.2 16.11190474474377 1.4260922051829326 12.693565217605386 0 0 0
5268 2 -1.2 10.434537148605258 7.4066374824723615 6.68402029932131 0 0 0
5269 2 -1.2 20.896034444733786 4.701902866317348 10.981131691313571 0 0 0
5270 2 -1.2 15.663438545734426 8.095421674090892 2.3156407764663034 0 0 0
5271 2 -1.2 14.781758005237444 13.068866252366405 10.96840605818582 0 0 0
5272 2 -1.2 12.82897480799593 15.836452360138463 4.203579365956429 0 0 0
5273 2 -1.2 15.86808913053438 6.516411956145789 0.3934799031521082 0 0 0
5274 2 -1.2 18.542033385806022 14.13207265132074 12.813451712387444 0 0 0
5275 2 -1.2 14.08852091132227 8.773112807291875 10.033616225138065 0 0 0
5276 2 -1.2 3.4216723165952017 1.2799603285470815 5.15956407344695 0 0 0
5277 2 -1.2 16.25847034963131 16.249764075441554 2.275005631696067 0 0 0
5278 2 -1.2 6.501536725742521 15.088666242400967 9.56352558352762 0 0 0
5279 2 -1.2 7.706366199707571 14.864080058824687 6.963906326531801 0 0 0
5280 2 -1.2 0.039900626361198434 8.851867935205158 10.155132428788237 0 0 0
5281 2 -1.2 17.959395917528266 15.761941205388862 9.234724192547745 0 0 0
5282 2 -1.2 13.651815850907846 14.584510845834844 6.725654760146534 0 0 0
5283 2 -1.2 7.450366411632268 13.702377440656742 4.087802642807956 0 0 0
5284 2 -1.2 19.982492057382604 3.579654820056377 9.460058730695406 0 0 0
5285 2 -1.2 11.730176684115929 11.383449265974455 7.405774555848419 0 0 0
5286 2 -1.2 5.240968287177961 4.969617446466046 10.505956891759178 0 0 0
5287 2 -1.2 0.6427362415292682 15.81327450786294 11.708191761721706 0 0 0
5288 2 -1.2 17.39553131734174 2.0284241100844254 11.189113339901986 0 0 0
5289 2 -1.2 21.943582221482767 8.07566884208265 1.2087728726799252 0 0 0
5290 2 -1.2 3.7648085264437214 11.07599319073928 1.703600754448547 0 0 0
5291 2 -1.2 15.336573878512294 7.072022006649946 7.744372350370211 0 0 0
5292 2 -1.2 14.32065781841619 5.926150361814294 6.236253735567828 0 0 0
5293 2 -1.2 19.31704629764312 3.142283343501919 4.071000703686502 0 0 0
5294 2 -1.2 6.115588871911215 13.691088210725855 12.877102989655947 0 0 0
5295 2 -1.2 12.757769972183201 10.261103627004916 4.244460942330838 0 0 0
5296 2 -1.2 3.1506562247286203 12.442423617366062 4.298592755012871 0 0 0
5297 2 -1.2 19.073696213287953 16.05676335444314 1.1258884669175449 0 0 0
5298 2 -1.2 7.378904574496691 3.807607474437897 2.464156879642919 0 0 0
5299 2 -1.2 8.072577214778425 15.423588702297506 13.662654866291154 0 0 0
5300 2 -1.2 10.89165942334454 13.86838094307776 14.725238699570975 0 0 0
5301 2 -1.2 19.446925059325366 2.213365189478047 9.231425916458026 0 0 0
5302 2 -1.2 9.292358773019547 1.7954992196779733 0.7924402516596512 0 0 0
5303 2 -1.2 21.054009336764896 12.754075963361108 14.35169328583696 0 0 0
5304 2 -1.2 16.167740223509128 13.391840770068608 12.785858675995033 0 0 0
5305 2 -1.2 5.485291956640324 8.41818233217912 0.5387548621877528 0 0 0
5306 2 -1.2 5.189827150201395 5.725875394021091 15.180462554226887 0 0 0
5307 2 -1.2 7.646562176774172 2.374805593351765 9.352660620457813 0 0 0
5308 2 -1.2 2.85143624068752 12.812642651268577 6.045077970485678 0 0 0
5309 2 -1.2 8.9938631690859 14.340374719544045 6.429127958912728 0 0 0
5310 2 -1.2 16.801751701544838 14.919607105187122 13.745831495500124 0 0 0
5311 2 -1.2 15.30157119199025 14.36403301637886 6.999347271184963 0 0 0
5312 2 -1.2 1.2442411815027137 0.41002308446685465 8.97520373287349 0 0 0
5313 2 -1.2 10.607700294953004 6.024617152219355 6.7727017797667335 0 0 0
5314 2 -1.2 6.429809936883463 0.7408526596272816 10.461015187531892 0 0 0
5315 2 -1.2 8.19029278795458 8.59534912155663 0.27016700140498434 0 0 0
5316 2 -1.2 18.726484159678325 3.9338203310398336 6.0981679725294855 0 0 0
5317 2 -1.2 0.07545407842799476 10.816573436139734 9.238316695091966 0 0 0
5318 2 -1.2 2.055560984536535 4.047990734289501 5.862053369062138 0 0 0
5319 2 -1.2 12.42332613873108 14.206248995593997 2.155147209840282 0 0 0
5320 2 -1.2 10.804604724294128 6.6075645012288335 10.350998683720885 0 0 0
5321 2 -1.2 14.25029892988341 14.568637562812347 4.646570728032494 0 0 0
5322 2 -1.2 5.493219029936855 9.296911363479188 12.135091143126804 0 0 0
5323 2 -1.2 0.6737808919709273 8.174347026861179 5.298126151766736 0 0 0
5324 2 -1.2 15.864042345795745 4.677896785678018 4.565709976571235 0 0 0
5325 2 -1.2 11.706675546363428 13.454602650193229 8.81204302254303 0 0 0
5326 2 -1.2 2.575784633833746 12.241801482078472 7.407957495501793 0 0 0
5327 2 -1.2 15.241752192720773 1.6230512704167925 14.19477801580674 0 0 0
5328 2 -1.2 14.761678405600009 6.470014804738721 14.706107385510034 0 0 0
5329 2 -1.2 3.1385849280624196 8.0875283437738 2.0040300005893057 0 0 0
5330 2 -1.2 8.611215501905706 2.2332378013594187 12.351434147942552 0 0 0
5331 2 -1.2 6.844170889361805 16.446808129841887 5.204631350862558 0 0 0
5332 2 -1.2 1.6777910422233395 7.744979724000105 2.0836235259834877 0 0 0
5333 2 -1.2 16.246654698405678 16.191501721474665 15.696561486369939 0 0 0
5334 2 -1.2 8.646524155590166 0.083616890348 15.657361512176314 0 0 0
5335 2 -1.2 19.848736119508597 5.520668650962775 7.41212042388381 0 0 0
5336 2 -1.2 18.474834350108498 9.706410522707309 12.30468338860027 0 0 0
5337 2 -1.2 16.41923848241879 5.0721386330398035 13.00884541153042 0 0 0
5338 2 -1.2 18.703235801524304 10.253440426889144 7.800648460060673 0 0 0
5339 2 -1.2 7.280479569918223 3.9734538177766003 10.460220239914928 0 0 0
5340 2 -1.2 11.253583724144422 8.556878766106534 15.456862269127992 0 0 0
5341 2 -1.2 0.10248380736457229 1.8746561509783795 7.667065982671834 0 0 0
5342 2 -1.2 7.189808917723269 2.1151088073502535 12.231309788267081 0 0 0
5343 2 -1.2 14.848764228311818 14.253926623735866 9.363492209304095 0 0 0
5344 2 -1.2 12.013791171884597 13.43483810829258 7.508366957057322 0 0 0
5345 2 -1.2 16.32451771741052 1.3193435009258767 5.314582926401715 0 0 0
5346 2 -1.2 6.831701826139813 5.406650353052385 10.204669464582453 0 0 0
5347 2 -1.2 9.2571965546212 6.406257984361014 1.9579622053139627 0 0 0
5348 2 -1.2 4.379018730495229 10.682727332094187 9.663907680913521 0 0 0
5349 2 -1.2 20.128770708275137 13.580490896251415 6.990324706638169 0 0 0
5350 2 -1.2 4.528344757624888 5.725019893934176 0.8020725934458334 0 0 0
5351 2 -1.2 8.383112498668769 6.702226439435507 13.115091761403177 0 0 0
5352 2 -1.2 1.960823394261804 0.012413348786535954 10.103765260072693 0 0 0
5353 2 -1.2 6.611076297961958 3.1979704456042635 13.542982693355667 0 0 0
5354 2 -1.2 18.3215242477956 13.87956228792096 4.122713684014155 0 0 0
5355 2 -1.2 17.585263745738096 14.423143443895636 7.83136356947757 0 0 0
5356 2 -1.2 6.33945529770599 4.193738434007854 6.939193060837554 0 0 0
5357 2 -1.2 5.3237847447488695 7.174105274063156 2.887153538801508 0 0 0
5358 2 -1.2 13.013999582304765 15.285425376629714 7.704497978820412 0 0 0
5359 2 -1.2 1.6428169833066828 15.518134897462382 14.481454640440068 0 0 0
5360 2 -1.2 3.7373133292839307 12.194786048352269 11.329114040135094 0 0 0
5361 2 -1.2 9.93465715701928 10.249702228630964 11.148546266585248 0 0 0
5362 2 -1.2 9.052827346209604 12.714360661455018 8.614573467631198 0 0 0
5363 2 -1.2 21.939291131409895 2.131113919108857 16.526039388143577 0 0 0
5364 2 -1.2 21.353094811120837 10.12315265099129 1.8552646924129466 0 0 0
5365 2 -1.2 20.67587534005984 10.332402789082542 11.405151209573988 0 0 0
5366 2 -1.2 17.47428157640502 2.0681095517648758 16.424372345774458 0 0 0
5367 2 -1.2 6.686273775668689 9.70185555945368 1.9252119165965762 0 0 0
5368 2 -1.2 20.664115156745613 11.206389622112479 9.475157096180057 0 0 0
5369 2 -1.2 5.500639064892125 1.6538469931982651 2.3721233500492196 0 0 0
5370 2 -1.2 6.658869237728539 12.34435792159148 10.503342165231016 0 0 0
5371 2 -1.2 8.65120860560142 12.639372297774287 5.625267788759819 0 0 0
5372 2 -1.2 20.250023839947715 0.03220103313244408 11.796396403022078 0 0 0
5373 2 -1.2 7.930759971262284 14.229830469371516 1.4342013981219122 0 0 0
5374 2 -1.2 17.451329293635883 13.363868641317246 5.888862274080307 0 0 0
5375 2 -1.2 10.01352451500664 12.257469287304716 6.033576206007589 0 0 0
5376 2 -1.2 3.2445940293518927 3.0360035588047865 4.573149456111002 0 0 0
5377 2 -1.2 2.162456555496791 13.89536170617477 4.96035254877742 0 0 0
5378 2 -1.2 21.26677718816649 15.25037415568519 14.180790949927102 0 0 0
5379 2 -1.2 8.831744762441765 2.8239474531530475 14.039162081601198 0 0 0
5380 2 -1.2 3.1737424625038044 3.398046314411027 1.2525172095929993 0 0 0
5381 2 -1.2 21.073818561149736 14.808730540594262 3.165696472168321 0 0 0
5382 2 -1.2 0.5206786094327633 15.840325746022941 3.12777999462912 0 0 0
5383 2 -1.2 9.879271245675868 5.839833324354568 11.373315648346695 0 0 0
5384 2 -1.2 8.815965158558532 2.319328714633648 3.413903049506621 0 0 0
5385 2 -1.2 5.772240867087644 0.33541720285077314 12.414274114560227 0 0 0
5386 2 -1.2 2.0871576331432005 5.686496412551158 15.095880306511882 0 0 0
5387 2 -1.2 7.87139195692804 9.068552529908645 12.30433936428753 0 0 0
5388 2 -1.2 18.853183870464868 15.750389704683545 13.616039633545743 0 0 0
5389 2 -1.2 2.138503508343866 8.371273797444399 6.256562756649937 0 0 0
5390 2 -1.2 4.374668104864117 3.7375582817437993 16.311702041373252 0 0 0
5391 2 -1.2 19.32885664860166 3.1114641084891117 15.498485297400366 0 0 0
5392 2 -1.2 18.8882643045094 9.765081305395183 5.747589047513033 0 0 0
5393 2 -1.2 12.041262764366534 11.919321429990942 13.90098846355429 0 0 0
5394 2 -1.2 6.379267360301977 11.55711516730808 14.473557273291647 0 0 0
5395 2 -1.2 5.095300831038108 5.241131578546038 7.7140554697417025 0 0 0
5396 2 -1.2 13.513579276781494 7.395267115313292 14.109647252078945 0 0 0
5397 2 -1.2 11.990146680396618 13.096645260339553 14.619621540706596 0 0 0
5398 2 -1.2 12.686587385166046 5.059690401100095 2.318798996079723 0 0 0
5399 2 -1.2 19.65237663158153 14.096551647982118 11.394111985846012 0 0 0
5400 2 -1.2 5.032840172487928 14.277578233605807 9.821323702921713 0 0 0
5401 2 -1.2 20.703216151532885 6.6188496943283885 1.4938513127081234 0 0 0
5402 2 -1.2 9.32407674227466 5.473041036387689 1.044353441362135 0 0 0
5403 2 -1.2 6.15460715787948 7.713461161886497 1.7575175365273639 0 0 0
5404 2 -1.2 8.343819584908037 8.064184180210578 6.7134485840090985 0 0 0
5405 2 -1.2 4.946017390938207 10.914599225833612 2.3628657864511027 0 0 0
5406 2 -1.2 15.821071385645197 10.398724784654222 1.0903999431225995 0 0 0
5407 2 -1.2 1.2451459247687544 15.616043156815092 5.630671287795931 0 0 0
5408 2 -1.2 9.414901564447815 9.922520870450215 4.802521657607421 0 0 0
5409 2 -1.2 12.88770703680344 10.312082951757708 0.7686249498200508 0 0 0
5410 2 -1.2 19.577449467496383 12.135827572097234 13.050942597998795 0 0 0
5411 2 -1.2 17.872119870695837 4.780932591207597 15.717799286813031 0 0 0
5412 2 -1.2 7.796969396759154 15.588706474619894 9.41362515535985 0 0 0
5413 2 -1.2 17.690731911629335 0.28011742084757235 9.451981031203902 0 0 0
5414 2 -1.2 11.552636657325673 5.379035930698578 9.319644486367261 0 0 0
5415 2 -1.2 14.73458938762924 14.415461292243469 11.06903261498349 0 0 0
5416 2 -1.2 8.02481096124033 6.725716668498764 10.860596037075027 0 0 0
5417 2 -1.2 18.490621657868314 10.340508314976267 15.283133041928846 0 0 0
5418 2 -1.2 17.419397187427236 6.087327046584784 1.9251614716127032 0 0 0
5419 2 -1.2 6.469576762316147 7.343928389310096 11.545026429065294 0 0 0
5420 2 -1.2 21.43551048221633 5.591622186321331 8.763862423706735 0 0 0
5421 2 -1.2 10.828647475385997 13.639306511819072 2.867436576042642 0 0 0
5422 2 -1.2 18.66417576054495 15.529291004405891 3.4547562447996945 0 0 0
5423 2 -1.2 17.411176380724307 0.27182065392152216 2.3598111685699865 0 0 0
5424 2 -1.2 11.603749721375966 4.150956311280138 15.833811625322951 0 0 0
5425 2 -1.2 20.025605662511982 0.2562609803070128 5.551560456493004 0 0 0
5426 2 -1.2 4.402564119314827 9.35530163261288 0.8634054969106147 0 0 0
5427 2 -1.2 16.380346878997074 13.178919241736914 7.706712319474744 0 0 0
5428 2 -1.2 8.769199977559287 10.44648284126763 9.65050626373181 0 0 0
5429 2 -1.2 13.340659049070197 12.8600209683974 8.222902773671615 0 0 0
5430 2 -1.2 11.95019055530851 3.3120102219225704 11.111421254510795 0 0 0
5431 2 -1.2 12.635835817820587 12.363445138662852 0.4232198250554781 0 0 0
5432 2 -1.2 14.67153294207955 13.438515846527325 3.1443175367062066 0 0 0
5433 2 -1.2 20.21122992168109 9.780776043373965 4.825866529927287 0 0 0
5434 2 -1.2 6.949908937457542 6.8396923177483835 7.3512509548188225 0 0 0
5435 2 -1.2 1.5872092003176481 7.379269245198677 9.936627962727032 0 0 0
5436 2 -1.2 9.824225691599942 7.150349014733696 0.6704785790498783 0 0 0
5437 2 -1.2 15.234428394591792 10.88356798013721 10.227086820977098 0 0 0
5438 2 -1.2 1.4614419051218317 11.233808704971619 7.077111187521426 0 0 0
5439 2 -1.2 16.64025619954579 13.872338208770486 15.059207265468867 0 0 0
5440 2 -1.2 7.163051597862707 15.635405433096023 0.17346908269465464 0 0 0
5441 2 -1.2 13.296667633427317 1.4300535077069885 13.095380807668047 0 0 0
5442 2 -1.2 3.8197957467661507 8.78506210536849 12.338081203552308 0 0 0
5443 2 -1.2 14.34453049872859 10.099512781829263 1.5947592767096577 0 0 0
5444 2 -1.2 5.236775529385811 0.6777331655516267 8.424413165929357 0 0 0
5445 2 -1.2 8.579763624547809 3.0279025011594793 0.7702654749308891 0 0 0
5446 2 -1.2 10.482255607293023 15.301221466808839 8.486201892363868 0 0 0
5447 2 -1.2 7.366900794604873 0.5874666279067708 13.358021398989889 0 0 0
5448 2 -1.2 3.5320817489275074 4.009003448720611 12.360704130189722 0 0 0
5449 2 -1.2 14.112462710815382 14.10816129754789 7.990104442549687 0 0 0
5450 2 -1.2 16.864254269183636 6.587526502524954 4.4513341263408215 0 0 0
5451 2 -1.2 17.3684954561194 10.867276068461132 1.1121110081120091 0 0 0
5452 2 -1.2 17.368277374781055 7.201983014918609 8.197772574176634 0 0 0
5453 2 -1.2 14.049294528239715 11.253251656248139 2.9758136332855334 0 0 0
5454 2 -1.2 8.206305726851793 13.021629440042679 11.168852514271787 0 0 0
5455 2 -1.2 3.548444875238729 14.320883634446623 9.721440385321374 0 0 0
5456 2 -1.2 16.226975885243654 16.32866856611405 4.906861729442694 0 0 0
5457 2 -1.2 4.3360379093826555 16.237822142270954 0.0943226286664029 0 0 0
5458 2 -1.2 19.711518121128695 15.450627490992947 4.873004948339281 0 0 0
5459 2 -1.2 4.347530336762324 10.863661317121336 6.53478117191952 0 0 0
5460 2 -1.2 14.33245011148802 5.59183222481252 12.293979345134717 0 0 0
5461 2 -1.2 4.957752521245781 9.619546510010109 8.248732485160435 0 0 0
5462 2 -1.2 5.177755822719689 1.3704622042138295 4.181281974327954 0 0 0
5463 2 -1.2 1.6427823158620543 14.935479155589364 15.804198879014235 0 0 0
5464 2 -1.2 18.42776224666614 12.675119147958851 10.84041545502333 0 0 0
5465 2 -1.2 4.039808169629934 0.6892809992116882 3.9814656953465692 0 0 0
5466 2 -1.2 18.15208857590983 11.733449968830007 0.2217495237714802 0 0 0
5467 2 -1.2 17.55365776003301 12.627709152489514 8.130172782819203 0 0 0
5468 2 -1.2 2.9103999555786295 11.178859849954579 10.012847960565022 0 0 0
5469 2 -1.2 0.8866187870184243 11.847868775876254 4.160557529404921 0 0 0
5470 2 -1.2 15.293443879533546 10.119884420020249 13.101902693875632 0 0 0
5471 2 -1.2 2.977050536894376 6.386649184029389 3.2718346904293436 0 0 0
5472 2 -1.2 16.545630099772985 11.710581689131143 12.929348215409044 0 0 0
5473 2 -1.2 19.4668324927289 5.91861874391058 12.003943491340134 0 0 0
5474 2 -1.2 6.489469897324739 10.808868819983447 12.09842481986417 0 0 0
5475 2 -1.2 8.781358173953356 16.26190184115492 7.7470461810395275 0 0 0
5476 2 -1.2 12.127333740008163 2.646698540451153 12.927503229413665 0 0 0
5477 2 -1.2 17.982544248548717 7.7611650756552715 9.407645067384673 0 0 0
5478 2 -1.2 12.501840505093357 10.281285811462945 12.567455469687651 0 0 0
5479 2 -1.2 10.836660493129703 15.962503866749222 5.125781157112226 0 0 0
5480 2 -1.2 16.159216038146315 2.477449240747705 13.913748178632048 0 0 0
5481 2 -1.2 3.390524341760796 7.182314740659755 8.512066764345418 0 0 0
5482 2 -1.2 12.142984658336935 0.9884991651379145 3.5806896047591583 0 0 0
5483 2 -1.2 2.106702398852658 3.29639403266944 13.353312204127045 0 0 0
5484 2 -1.2 0.2875055001227706 1.2718375459698072 0.9915491606930799 0 0 0
5485 2 -1.2 16.643721773019408 5.94243564815651 15.239877562208294 0 0 0
5486 2 -1.2 15.250304944057959 13.017551131041062 8.80050905586082 0 0 0
5487 2 -1.2 18.010339126507628 11.679107408900139 13.347487826905388 0 0 0
17501 3 1.2 5.90283482585646 11.426816482720982 8.344831165534545 0 0 0
17502 3 1.2 5.284163645845649 3.0202553251070032 4.595769424459808 0 0 0
17503 3 1.2 3.154420739429211 9.536826258449983 7.661179080787821 0 0 0
17504 3 1.2 15.738005168395432 3.996526034496401 1.180191059135695 0 0 0
17505 3 1.2 20.42770980897598 8.489465562639971 7.431682446276815 0 0 0
17506 3 1.2 19.297540174578607 6.181852656991426 2.3979932141427964 0 0 0
17507 3 1.2 1.86696450815026 10.745216833958297 1.1122306030921012 0 0 0
17508 3 1.2 20.28209298271304 9.611916035962068 12.354947023218397 0 0 0
17509 3 1.2 18.419191437442237 0.9771203853456152 10.864925430822273 0 0 0
17510 3 1.2 21.273819579091604 1.2602465706008747 4.709413930278336 0 0 0
17511 3 1.2 2.287928884665954 5.083328236438703 2.5451219415931283 0 0 0
17512 3 1.2 9.89168200595987 15.90009362236741 15.009538739909113 0 0 0
17513 3 1.2 16.053354512316687 10.009274779343274 7.007957924858556 0 0 0
17514 3 1.2 16.53384156619293 12.108085604362701 10.022262405905899 0 0 0
17515 3 1.2 3.7920388335110435 5.50519254900145 12.008458486882045 0 0 0
17516 3 1.2 19.16792433079642 11.529631957380253 15.793819538538948 0 0 0
17517 3 1.2 4.937973958289748 8.080218566700202 11.50019858813392 0 0 0
18201 4 0.6 13.647898152325256 14.915546699994685 11.678397358003132 0 0 0
18202 4 0.6 6.705418925891974 0.5954157034748259 14.606542607798696 0 0 0
18203 4 0.6 4.816161864147733 12.234026205966154 9.080483739283041 0 0 0
18204 4 0.6 2.3749793928075027 12.27370807304787 14.255664464215718 0 0 0
18205 4 0.6 6.717607783714847 6.926161337285363 4.768551814411259 0 0 0
18206 4 0.6 4.748817101920743 5.35913829662606 5.779088288304168 0 0 0
18207 4 0.6 2.6616970328797676 0.3039817501577541 13.48498815695435 0 0 0
18208 4 0.6 2.575429022890622 6.265048360998818 10.976475899723209 0 0 0
18209 4 0.6 8.104097656637919 15.781287580868522 3.510277220507379 0 0 0
18210 4 0.6 6.009370071101123 15.218193152631866 2.721040086653879 0 0 0
18211 4 0.6 19.26584445411907 2.878246347510437 0.17953650181478778 0 0 0
18212 4 0.6 3.6702117322174423 9.40677499156326 5.6908022632515625 0 0 0
18213 4 0.6 11.154648630489566 0.14965800257942238 0.6218039460159956 0 0 0
18214 4 0.6 6.268483334674645 2.5322825376159828 9.035825599345063 0 0 0
18215 4 0.6 21.829183197991586 4.469363046478078 7.056339625689204 0 0 0
18216 4 0.6 12.69062249082778 6.701915326083534 7.886209654780978 0 0 0
18217 4 0.6 6.765056822430714 10.292603853892254 4.262406783863011 0 0 0
18218 4 0.6 21.8374768525515 11.509223371397171 3.6656945795900877 0 0 0
18219 4 0.6 1.142183059542674 5.68986152747412 5.4775708850036535 0 0 0
19461 5 0.6 14.52555532786842 8.497203274650063 5.1278163364127165 0 0 0
19462 5 0.6 13.663235183906483 7.981852758709407 12.660961980484238 0 0 0
19463 5 0.6 1.4376237990711547 7.977675901718527 8.636322466508908 0 0 0
19464 5 0.6 14.131461394937048 2.5400656716824157 7.495367990388366 0 0 0
19465 5 0.6 6.859243924500248 5.076125974666714 13.848300203266591 0 0 0
19466 5 0.6 1.1112103016772983 14.53708753806677 3.7916722830631704 0 0 0
19467 5 0.6 0.8465441763084498 0.07184589079104924 16.349559753741868 0 0 0
19468 5 0.6 19.368612442083077 9.529125833202556 10.591723810799785 0 0 0
19469 5 0.6 2.307943155429955 10.584197308270124 8.064695563538233 0 0 0
19470 5 0.6 18.931546593720466 9.276760826546166 4.34399656857318 0 0 0
19471 5 0.6 5.528620900527982 8.713987002837436 8.943159735561338 0 0 0
19472 5 0.6 8.647498942502109 16.46686051938723 11.346162780646797 0 0 0
19473 5 0.6 13.340374159714116 8.0718855607387 3.7989592566620782 0 0 0
19474 5 0.6 21.33342823171483 10.465932232984976 5.65745319843055 0 0 0
19475 5 0.6 1.7683394184891492 7.5482331933134486 4.154478862624974 0 0 0
19476 5 0.6 15.934669699019727 0.5474956497446062 3.323750744943754 0 0 0
19477 5 0.6 2.7997410409070236 4.256767053155322 7.448460164410289 0 0 0
19478 5 0.6 20.108965674799162 11.596272924258026 10.840019013534308 0 0 0
112 1 2.4 20.510703702232377 13.67611495619693 25.924797848995414 0 0 0
113 1 2.4 17.522196144975112 13.258712328350134 25.27320039291053 0 0 0
114 1 2.4 13.726641878501194 14.845433904095511 24.456963451977103 0 0 0
115 1 2.4 7.698498970124346 14.991144317051196 24.907424523604654 0 0 0
116 1 2.4 2.7373968649707963 15.250937000908428 23.6405306168699 0 0 0
117 1 2.4 14.631460026222424 1.690978353267024 30.856728639968516 0 0 0
118 1 2.4 17.10045703581461 5.899669364599052 24.40070506120279 0 0 0