LAMMPS data file via write_data, version 29 Aug 2024, timestep = 0, units = metal

20300 atoms
5 atom types

0 67.4104028435097 xlo xhi
0 67.4104028435097 ylo yhi
0 67.4104028435097 zlo zhi

Masses

1 28.086
2 15.9994
3 40.078
4 22.99
5 39.1

Atoms # charge

1 1 2.4 6.722470665977986 4.729317369751204 8.772080910554497 0 0 0
2 1 2.4 7.925627697859925 3.0686991566015815 6.668549717864129 0 0 0
3 1 2.4 14.106342052770295 2.904080286743409 3.7457205954514863 0 0 0
4 1 2.4 14.72827102182885 7.051822509852786 12.492724205724574 0 0 0
5 1 2.4 6.461825346262063 5.739613732368947 1.40153086251002 0 0 0
6 1 2.4 2.51938142820218 9.510678069944198 15.901179590636712 0 0 0
7 1 2.4 22.092688324498557 15.313807795793311 6.249567378135962 0 0 0
8 1 2.4 10.965942636742716 4.556521579304305 3.240553140427817 0 0 0
9 1 2.4 5.419346305979964 11.499123023656786 0.13570625728401184 0 0 0
10 1 2.4 5.466905233128031 1.8971774791083955 0.7413463947145367 0 0 0
11 1 2.4 9.493873054332227 3.100893574281141 8.476904910133666 0 0 0
12 1 2.4 9.526340254717969 9.493907709350365 3.6833404641373955 0 0 0
13 1 2.4 12.213407145198612 6.057230866021112 14.170871517188528 0 0 0
14 1 2.4 19.052259312847724 11.908764360647083 9.116567015203923 0 0 0
15 1 2.4 5.36264529715376 2.270907490771688 12.854187973268365 0 0 0
16 1 2.4 2.2340770227036355 0.5381367450970259 11.470293815415229 0 0 0
17 1 2.4 5.960492638503676 6.141149875868748 8.979210312681058 0 0 0
18 1 2.4 6.698442527536476 5.350811644343105 5.613913232640851 0 0 0
19 1 2.4 15.165800733542902 12.879777345389353 15.61431344921205 0 0 0
20 1 2.4 15.638507391825486 3.2330475666442813 5.045760721615998 0 0 0
21 1 2.4 1.8136710648752665 12.867502092220752 11.535341975050601 0 0 0
22 1 2.4 1.2914951215697217 0.008792612188157578 12.956627359345005 0 0 0
23 1 2.4 14.579642052676844 3.2296431819683837 15.238670317317345 0 0 0
24 1 2.4 1.131139729264637 1.3318278810179964 3.7774522242429853 0 0 0
25 1 2.4 21.454647754094957 10.019993140499261 14.838409283864475 0 0 0
26 1 2.4 4.845933514774313 13.837947852164323 8.49974121729919 0 0 0
27 1 2.4 18.47831501913562 5.314626563207056 4.1448801706331 0 0 0
28 1 2.4 6.366068665630657 14.206750604559344 5.210539117563103 0 0 0
29 1 2.4 8.844405556724876 7.985921936098552 5.277918580538258 0 0 0
30 1 2.4 1.0953289160464013 6.153115713716884 7.857838495798028 0 0 0
31 1 2.4 4.184287195353181 16.264726520289862 12.075096079889088 0 0 0
32 1 2.4 4.091690116941653 10.424895058464534 11.574257331700839 0 0 0
33 1 2.4 19.822115863625957 8.090467336506658 9.70198930832495 0 0 0
34 1 2.4 16.12455748770805 15.618265000211474 0.07118592747653997 0 0 0
35 1 2.4 9.040944303693188 8.102902900524565 16.475305226776157 0 0 0
36 1 2.4 10.396190124875885 1.003258411846174 9.163417021220068 0 0 0
37 1 2.4 10.870048528874523 10.713918882843721 15.648668940010952 0 0 0
38 1 2.4 21.037825231869533 15.165757822845626 12.158577256228574 0 0 0
39 1 2.4 16.93795951273658 2.15432242225941 8.310623949192681 0 0 0
40 1 2.4 4.488526864195528 6.430224646891449 13.909882158524416 0 0 0
41 1 2.4 10.858034098663996 11.018598865037003 13.214513555755373 0 0 0
42 1 2.4 15.334291579698526 13.468509255523452 1.1023090770639903 0 0 0
43 1 2.4 20.78916857083344 15.438232086809954 7.726138346054678 0 0 0
44 1 2.4 2.571914794412232 16.103726996669376 2.572216330738536 0 0 0
45 1 2.4 16.376854149874887 9.112886897122836 3.8548194894566867 0 0 0
46 1 2.4 13.677125935511794 1.9819017786619442 9.084189277500878 0 0 0
47 1 2.4 7.613385450793654 13.224674507522952 15.006272886747954 0 0 0
48 1 2.4 8.819908759387705 0.7306661513119321 11.612687580877964 0 0 0
49 1 2.4 1.7333528181396483 11.166786076878985 9.612077774086261 0 0 0
50 1 2.4 14.868834600536553 10.13979032739568 5.957644146686671 0 0 0
51 1 2.4 6.089460127061299 16.564839071541797 0.2865317079434582 0 0 0
52 1 2.4 18.442370074674173 7.881570591235855 4.115339404464762 0 0 0
53 1 2.4 19.533342597539146 8.227188948153634 15.628419579724813 0 0 0
54 1 2.4 20.33578208516315 12.747088742868677 10.060264720028739 0 0 0
55 1 2.4 14.559440060526912 0.7467753355950268 12.71813645280998 0 0 0
56 1 2.4 2.1825690243989264 11.178446203475627 3.3526169532991856 0 0 0
57 1 2.4 6.730384723231665 2.920071945312816 2.8759147974362027 0 0 0
58 1 2.4 0.2452202581369166 9.382305053065478 15.468775902298583 0 0 0
59 1 2.4 21.36184494290364 0.7224108488569986 7.686624907827814 0 0 0
60 1 2.4 21.153576727911997 5.699469346800971 0.7988710566394188 0 0 0
61 1 2.4 17.00212478556021 2.013617272780143 2.8432761739942527 0 0 0
62 1 2.4 12.526356743876057 7.789714044104137 10.721617162384822 0 0 0
63 1 2.4 10.312207800561234 5.130793369215901 15.338919562750368 0 0 0
64 1 2.4 12.574322302459786 5.022023038684304 7.316851092945363 0 0 0
65 1 2.4 12.234035325012737 15.70303478447633 9.178490353199214 0 0 0
66 1 2.4 5.880222858568788 5.255015380398409 13.415773358355944 0 0 0
67 1 2.4 15.021245832179993 10.120052505312067 11.276082604936905 0 0 0
68 1 2.4 16.926458912228874 11.094938219721747 15.452393715576402 0 0 0
69 1 2.4 18.021694002324896 15.671121185449188 12.089854252101832 0 0 0
70 1 2.4 9.666852572878009 11.720339502314216 10.548906659695426 0 0 0
71 1 2.4 15.988166574082895 15.249876381561291 10.32073387673579 0 0 0
72 1 2.4 0.9627452830734204 2.363290172648898 15.090656882812695 0 0 0
73 1 2.4 20.41527605099179 0.5941155546457706 8.56050609202962 0 0 0
74 1 2.4 17.924802087335717 5.058374206506016 11.577303080885581 0 0 0
75 1 2.4 17.243541529894745 14.880668692813018 6.804170687390638 0 0 0
76 1 2.4 10.705471816343671 8.49962796068194 10.603509784307644 0 0 0
77 1 2.4 8.40761088296801 14.511750047005885 8.145552209817582 0 0 0
78 1 2.4 8.623722024532986 6.529952780045378 4.780544988869306 0 0 0
79 1 2.4 3.4534469214093506 1.7255598651069648 15.011430143586786 0 0 0
80 1 2.4 5.3745919240679285 0.8266575066857337 7.089729104127206 0 0 0
81 1 2.4 9.494638352649456 15.963262391940106 1.1477041687361962 0 0 0
82 1 2.4 17.52366284424293 4.151399897043754 2.8111265818272857 0 0 0
83 1 2.4 11.936853947930866 9.345440589178 2.5813569370671696 0 0 0
84 1 2.4 11.423486500363458 9.71031329300786 0.6502314461367356 0 0 0
85 1 2.4 15.430315549713491 9.49370505283125 0.2772923473692959 0 0 0
86 1 2.4 3.453794852768996 7.573242226671033 12.641535113721808 0 0 0
87 1 2.4 4.797363690702209 6.449748794420289 5.000215458198524 0 0 0
88 1 2.4 3.8625741775735087 2.0662641781211804 11.344577275185078 0 0 0
89 1 2.4 13.344778315992901 11.278896535907014 6.361283039914781 0 0 0
90 1 2.4 22.429248223803707 9.402196562620837 12.733362781671744 0 0 0
91 1 2.4 21.1252702328607 1.8250269241794996 1.4942208879403056 0 0 0
92 1 2.4 2.2829119702206664 12.38226554172324 12.82338182808174 0 0 0
93 1 2.4 21.00570950996033 14.680042442958 5.398931549597293 0 0 0
94 1 2.4 15.133178370335912 3.8789416735814792 7.5131582100415315 0 0 0
95 1 2.4 18.301892380141858 6.237058109423679 3.0592234262026152 0 0 0
96 1 2.4 13.356424505245291 4.785190770286444 4.090683897189448 0 0 0
97 1 2.4 7.115289126210188 0.6096998284095585 0.8437838659758615 0 0 0
98 1 2.4 0.8550798323683118 12.91093694664866 0.030509066299247344 0 0 0
99 1 2.4 6.882848471039367 3.7829732959914435 12.422304298544807 0 0 0
100 1 2.4 7.777465723911589 7.095308216752963 1.8425687983927266 0 0 0
101 1 2.4 3.9315533588769087 15.422516004693662 13.227557591577265 0 0 0
102 1 2.4 1.6128735175256999 8.583265963534668 0.6889640164005413 0 0 0
103 1 2.4 15.919193388348758 1.9943920875635783 16.7776024567395 0 0 0
104 1 2.4 7.990503681069128 14.872903457516763 11.114666750242527 0 0 0
105 1 2.4 11.399686036601802 14.158335911918076 0.42963401785313815 0 0 0
106 1 2.4 12.775435072356586 14.604204518762156 11.58859361673624 0 0 0
107 1 2.4 13.565154692974204 7.572508067645464 0.3025243710061446 0 0 0
108 1 2.4 20.283270880586073 6.526510381576939 14.334556773324346 0 0 0
109 1 2.4 14.600008216697127 8.471747653294832 13.892003433768032 0 0 0
110 1 2.4 9.98766685168637 10.813695953654605 7.34182697079597 0 0 0
111 1 2.4 19.99839985115675 4.837720652160433 10.625171587706252 0 0 0
5251 2 -1.2 21.56292977533111 9.835047281858703 7.33189391344115 0 0 0
5252 2 -1.2 21.61101967134858 9.157095525280019 5.3548016486008825 0 0 0
5253 2 -1.2 15.67938006641143 16.076060897474097 9.460907060252444 0 0 0
5254 2 -1.2 2.903919002791238 1.0350212113197488 3.717565025515414 0 0 0
5255 2 -1.2 2.3027392863773906 8.567953970230421 12.98190392598071 0 0 0
5256 2 -1.2 5.6840165674855365 10.725620476178552 10.086139587973978 0 0 0
5257 2 -1.2 21.37481941756594 16.553197967536637 6.865705223705979 0 0 0
5258 2 -1.2 17.708543442210743 10.561079140645381 8.46642986587379 0 0 0
5259 2 -1.2 18.314330392612135 13.051525166832125 3.532626166937396 0 0 0
5260 2 -1.2 3.570516689319345 14.41546666660152 7.76044599786115 0 0 0
5261 2 -1.2 7.58898122379026 7.525248322542578 14.932822548905953 0 0 0
5262 2 -1.2 11.952545357180982 3.429344481855581 1.0982753459581458 0 0 0
5263 2 -1.2 22.30840331902648 0.6739672770339462 2.420347399904303 0 0 0
5264 2 -1.2 19.212424228114706 7.3843815124261605 6.748444445120828 0 0 0
5265 2 -1.2 9.742412503558784 0.8584404274153111 1.9820550580582945 0 0 0
5266 2 -1.2 0.9712855477155484 11.078712325875754 12.385407220016166 0 0 0
5267 2 -1.2 16.41249605127011 1.4526980550792843 12.93038236701673 0 0 0
5268 2 -1.2 10.62920880314816 7.544819210399324 6.8087205396995945 0 0 0
5269 2 -1.2 21.285880735068332 4.789623787470842 11.18600087186819 0 0 0
5270 2 -1.2 15.955663054987022 8.246453685293075 2.358842464750288 0 0 0
5271 2 -1.2 15.057533465801786 13.312685195182485 11.173037823316948 0 0 0
5272 2 -1.2 13.068318222695986 16.131904696848007 4.28200332846851 0 0 0
5273 2 -1.2 16.16413169777832 6.637985216092025 0.40082085011363583 0 0 0
5274 2 -1.2 18.887962320304766 14.395727274997155 13.052505520882384 0 0 0
5275 2 -1.2 14.351363013162501 8.93678814443084 10.220808109529143 0 0 0
5276 2 -1.2 3.4855086518047864 1.3038398731170906 5.255823338289597 0 0 0
5277 2 -1.2 16.561796053323157 16.55292735076909 2.317449211522307 0 0 0
5278 2 -1.2 6.6228324663629765 15.370167528027846 9.74194723482794 0 0 0
5279 2 -1.2 7.850139808181531 15.141391358511452 7.09382825285787 0 0 0
5280 2 -1.2 0.04064503129650224 9.017012565216081 10.344591376881468 0 0 0
5281 2 -1.2 18.294454892168417 16.056003426794735 9.407011569765135 0 0 0
5282 2 -1.2 13.906510576832174 14.856606370209594 6.851131752694984 0 0 0
5283 2 -1.2 7.58936396712012 13.9580154674858 4.1640666200775796 0 0 0
5284 2 -1.2 20.355294869361767 3.646438551484847 9.636550055509334 0 0 0
5285 2 -1.2 11.949020401921144 11.595824273265375 7.543940184608621 0 0 0
5286 2 -1.2 5.338746267489065 5.062332977300887 10.701960986770573 0 0 0
5287 2 -1.2 0.6547274324935856 16.108294427610723 11.926625318428588 0 0 0
5288 2 -1.2 17.720070567619114 2.0662673485530934 11.397862724347652 0 0 0
5289 2 -1.2 22.352972058024317 8.226332335119226 1.2313243104428 0 0 0
5290 2 -1.2 3.8350465728891248 11.282632152241789 1.7353839349409719 0 0 0
5291 2 -1.2 15.622700246115336 7.203960990180459 7.888855019545852 0 0 0
5292 2 -1.2 14.587830776061605 6.03671142260448 6.352600231398226 0 0 0
5293 2 -1.2 11.419461841087543 9.478267686209572 10.46308291085718 0 0 0
5294 2 -1.2 19.67743423915777 3.200907266040149 4.14695121604228 0 0 0
5295 2 -1.2 6.229684187040573 13.946515620348052 13.117344306449835 0 0 0
5296 2 -1.2 12.995784955827647 10.452539623835136 4.323647610845091 0 0 0
5297 2 -1.2 3.2094363556945438 12.674555350438677 4.378789332197546 0 0 0
5298 2 -1.2 19.429544100665087 16.35632591714206 1.1468935740501507 0 0 0
5299 2 -1.2 7.516568904190841 3.8786439982762175 2.5101293545099503 0 0 0
5300 2 -1.2 8.223183028955463 15.71133845956075 13.917551810007057 0 0 0
5301 2 -1.2 11.094859366999318 14.127116009671592 14.999959709267873 0 0 0
5302 2 -1.2 19.80973608037547 2.2546587760940042 9.40365175947851 0 0 0
5303 2 -1.2 9.465721408198027 1.828996901352519 0.8072243913603371 0 0 0
5304 2 -1.2 21.44680288131589 12.99202202983184 14.619445255824395 0 0 0
5305 2 -1.2 16.46937322310519 13.641685278067012 13.024397695767497 0 0 0
5306 2 -1.2 5.587628154752646 8.575235918697635 0.5488061274160472 0 0 0
5307 2 -1.2 5.286651017300897 5.832700030397949 15.463676435213731 0 0 0
5308 2 -1.2 7.789220053143586 2.4191110884102898 9.527148275389985 0 0 0
5309 2 -1.2 2.904633982273253 13.051681365537068 6.157857800927182 0 0 0
5310 2 -1.2 9.161656929261687 14.607915525011585 6.549072807371758 0 0 0
5311 2 -1.2 17.115213118795715 15.197954343682987 14.002280221704966 0 0 0
5312 2 -1.2 15.58704453293752 14.632015202208835 7.129930400517541 0 0 0
5313 2 -1.2 1.2674543327909742 0.4176726688343429 9.142649373792182 0 0 0
5314 2 -1.2 10.805602562960143 6.137015255969155 6.899056503739236 0 0 0
5315 2 -1.2 6.549767508645695 0.7546743568399299 10.6561808288778 0 0 0
5316 2 -1.2 8.343094759476145 8.755708015395152 0.2752073646158655 0 0 0
5317 2 -1.2 19.07585429495292 4.007211541556573 6.211938275129972 0 0 0
5318 2 -1.2 0.07686178536126788 11.018372540144991 9.410671095733996 0 0 0
5319 2 -1.2 2.0939105013550217 4.123511961785806 5.971418606074749 0 0 0
5320 2 -1.2 12.655101580220222 14.471287488191667 2.1953546543246985 0 0 0
5321 2 -1.2 11.006180534356918 6.73083834611855 10.544111805197545 0 0 0
5322 2 -1.2 14.516159238865313 14.84043694772015 4.7332593466740605 0 0 0
5323 2 -1.2 5.595703119273515 9.470358933936025 12.361489136369578 0 0 0
5324 2 -1.2 0.686351266600041 8.326851506730668 5.396970496202205 0 0 0
5325 2 -1.2 16.160009414311812 4.765169838050119 4.650890018833191 0 0 0
5326 2 -1.2 11.925080815840293 13.705618073477291 8.976444660169188 0 0 0
5327 2 -1.2 2.6238396888182995 12.470190313816973 7.546163850215436 0 0 0
5328 2 -1.2 15.526109522157896 1.653331681681822 14.45960250038636 0 0 0
5329 2 -1.2 15.037079251667482 6.5907224575093 14.98047147237377 0 0 0
5330 2 -1.2 3.1971398512149998 8.238413093276609 2.041418131026934 0 0 0
5331 2 -1.2 8.771870406431637 2.2749021408108816 12.58186833848823 0 0 0
5332 2 -1.2 6.971858974806449 16.75364755213614 5.301731412123416 0 0 0
5333 2 -1.2 1.7090927045314308 7.889473724625121 2.122496590832554 0 0 0
5334 2 -1.2 16.549759963726295 16.49357802680221 15.989403952851019 0 0 0
5335 2 -1.2 8.807837795039797 0.08517688655673968 15.949472645419931 0 0 0
5336 2 -1.2 20.219043517521616 5.6236648533970826 7.550404444156003 0 0 0
5337 2 -1.2 18.819509587651005 9.887497902934866 12.534245374893601 0 0 0
5338 2 -1.2 16.725563552346227 5.166766847564567 13.251544577184735 0 0 0
5339 2 -1.2 19.052172204446155 10.444733455437746 7.946181042924737 0 0 0
5340 2 -1.2 7.41630763622888 4.0475844493456075 10.655371050342545 0 0 0
5341 2 -1.2 11.463535898535701 8.71651993881956 15.74523279377317 0 0 0
5342 2 -1.2 0.10439579369030826 1.9096306217586927 7.810106387730512 0 0 0
5343 2 -1.2 7.323945389511822 2.154569276482818 12.459502882009337 0 0 0
5344 2 -1.2 15.125789788629008 14.519854612688082 9.538181943474857 0 0 0
5345 2 -1.2 12.237926135559174 13.68548479494575 7.648446598121321 0 0 0
5346 2 -1.2 16.629075631997846 1.3439577965652376 5.413734296199308 0 0 0
5347 2 -1.2 6.959157282850335 5.507519376256194 10.395052599017815 0 0 0
5348 2 -1.2 9.429903186841855 6.525776159770541 1.9944908731995223 0 0 0
5349 2 -1.2 4.460715772673454 10.882029339950607 9.844202108045323 0 0 0
5350 2 -1.2 20.504302563870514 13.833854950126238 7.120739506744109 0 0 0
5351 2 -1.2 4.6128276967100525 5.831828569697255 0.8170364386654065 0 0 0
5352 2 -1.2 8.539511805805576 6.827266342164733 13.359773109153767 0 0 0
5353 2 -1.2 1.9974054418400615 0.012644938085829031 10.292265877999416 0 0 0
5354 2 -1.2 6.734415660590576 3.257633293027093 13.79564697647759 0 0 0
5355 2 -1.2 18.663339259642388 14.138505958966492 4.199628978161243 0 0 0
5356 2 -1.2 17.913342733833293 14.692228421786396 7.977469187933389 0 0 0
5357 2 -1.2 6.457727170634263 4.271978799444436 7.068653924803756 0 0 0
5358 2 -1.2 5.423107788016682 7.307948771256849 2.9410176391744707 0 0 0
5359 2 -1.2 13.256794906603986 15.570597493617989 7.8482367328829135 0 0 0
5360 2 -1.2 3.293892643884987 16.51293125352148 4.207071206087347 0 0 0
5361 2 -1.2 1.6734661530491315 15.807648553208265 14.75162749956102 0 0 0
5362 2 -1.2 3.8070384123418015 12.422297737948078 11.540475343783632 0 0 0
5363 2 -1.2 10.120002814285154 10.440925515586855 11.356538812546361 0 0 0
5364 2 -1.2 9.221721169929749 12.951565780491032 8.775291019952078 0 0 0
5365 2 -1.2 22.348600911347845 2.1708729871675474 16.83435698622325 0 0 0
5366 2 -1.2 21.751468235575793 10.312014969242007 1.8898773869813232 0 0 0
5367 2 -1.2 21.061614238129717 10.525168976763732 11.617931098577163 0 0 0
5368 2 -1.2 17.800290028718784 2.106693180581786 16.730793195482004 0 0 0
5369 2 -1.2 6.811016057966301 9.882857960134917 1.9611295796238875 0 0 0
5370 2 -1.2 21.04963465127982 11.415461321040747 9.651930103233259 0 0 0
5371 2 -1.2 5.603261585906293 1.6847019440160638 2.4163788039095433 0 0 0
5372 2 -1.2 6.78310024801985 12.57466009471539 10.699297478669049 0 0 0
5373 2 -1.2 8.812609640363496 12.875178398471366 5.730215442123738 0 0 0
5374 2 -1.2 20.627817851250146 0.03280179081901972 12.016475547186818 0 0 0
5375 2 -1.2 8.078719975946786 14.49530890908437 1.4609585369526896 0 0 0
5376 2 -1.2 17.776909537319156 13.613191288067032 5.998727670690038 0 0 0
5377 2 -1.2 10.200341558961753 12.486150425019325 6.146141454097311 0 0 0
5378 2 -1.2 3.305126708379096 3.092644675470863 4.658468292817822 0 0 0
5379 2 -1.2 2.202800366586866 14.154600138631228 5.052895229304047 0 0 0
5380 2 -1.2 21.663540230269316 15.534892340536578 14.445354485197884 0 0 0
5381 2 -1.2 8.996513965034998 2.876632350932246 14.301083321795984 0 0 0
5382 2 -1.2 3.2329533012280947 3.461441871762435 1.2758847623710847 0 0 0
5383 2 -1.2 21.466981675949157 15.085009213520621 3.224757201095814 0 0 0
5384 2 -1.2 0.5303926355500523 16.135850346449416 3.1861333358390866 0 0 0
5385 2 -1.2 10.06358359721423 5.9487840137158905 11.585501598079814 0 0 0
5386 2 -1.2 8.980439969407096 2.3625992068343438 3.477594437599033 0 0 0
5387 2 -1.2 5.8799305196340725 0.34167490464541767 12.64588067721007 0 0 0
5388 2 -1.2 2.1260966319650256 5.7925863760462395 15.377516181126891 0 0 0
5389 2 -1.2 8.018244363890402 9.237739730084794 12.533894932300758 0 0 0
5390 2 -1.2 19.20491777539955 16.044236415835083 13.870066901457513 0 0 0
5391 2 -1.2 2.1784004400703245 8.527452236178307 6.373288147172059 0 0 0
5392 2 -1.2 4.45628397971524 3.8072879347504824 16.61602086065403 0 0 0
5393 2 -1.2 19.689464929603258 3.1695130528192768 15.787632360924603 0 0 0
5394 2 -1.2 19.240652686594366 9.947263275461898 5.85481878406743 0 0 0
5395 2 -1.2 12.265910251048624 12.141693921531225 14.160331871454622 0 0 0
5396 2 -1.2 6.498281985878111 11.772730167697766 14.74358279540019 0 0 0
5397 2 -1.2 5.190361170471045 5.338912605298047 7.857972532869995 0 0 0
5398 2 -1.2 13.765694995873005 7.533236712298931 14.372883496912866 0 0 0
5399 2 -1.2 12.213840521267834 13.340982461451778 14.892372106791916 0 0 0
5400 2 -1.2 12.923274352838924 5.154086375528981 2.3620596056008263 0 0 0
5401 2 -1.2 20.019020654223358 14.359543575039366 11.606685921876153 0 0 0
5402 2 -1.2 5.1267352163672015 14.54394747816528 10.004554957726794 0 0 0
5403 2 -1.2 21.08946513269799 6.742334081111937 1.5217213085253167 0 0 0
5404 2 -1.2 9.49803112287181 5.575148675544179 1.0638373925390892 0 0 0
5405 2 -1.2 6.269430416584934 7.857367137326678 1.7903066139776922 0 0 0
5406 2 -1.2 8.499485824882909 8.21463340996967 6.83869785236907 0 0 0
5407 2 -1.2 5.03829262798795 11.118227145280878 2.4069485268314685 0 0 0
5408 2 -1.2 16.116236767628298 10.592728306816726 1.1107429595897491 0 0 0
5409 2 -1.2 1.2683759553748062 15.907383435301414 5.7357197513905955 0 0 0
5410 2 -1.2 9.590550415835017 10.107640107420416 4.892119770465691 0 0 0
5411 2 -1.2 13.12814618771049 10.504470042954239 0.7829647799987592 0 0 0
5412 2 -1.2 19.942695613567842 12.362239304506785 13.294427148651474 0 0 0
5413 2 -1.2 18.20555058217521 4.870127928243976 16.011037975732368 0 0 0
5414 2 -1.2 7.942433341280196 15.879536747048752 9.589250193456103 0 0 0
5415 2 -1.2 18.020778563652815 0.28534342378436534 9.628321654640038 0 0 0
5416 2 -1.2 11.768168104517384 5.47938976619331 9.493516176704311 0 0 0
5417 2 -1.2 15.00948484818002 14.684402948283793 11.275541716696372 0 0 0
5418 2 -1.2 8.174525625625561 6.85119481603868 11.063216447520553 0 0 0
5419 2 -1.2 18.83559143088265 10.533425723177753 15.568262392037994 0 0 0
5420 2 -1.2 17.74438169065167 6.200895095749361 1.9610781935145642 0 0 0
5421 2 -1.2 6.59027624276035 7.4809401867699075 11.760415896243344 0 0 0
5422 2 -1.2 21.83542149236617 5.695942131431255 8.927365181319457 0 0 0
5423 2 -1.2 11.030671838371468 13.893767857603681 2.920932827443661 0 0 0
5424 2 -1.2 19.012383440889494 15.819012793753297 3.519209809403417 0 0 0
5425 2 -1.2 17.736007512695206 0.27689186845497266 2.4038369205560954 0 0 0
5426 2 -1.2 11.820234758037502 4.228398513223922 16.12921469523624 0 0 0
5427 2 -1.2 20.399212822276226 0.26104190621878837 5.6551329910452335 0 0 0
5428 2 -1.2 4.4847004353902165 9.529838559515486 0.8795135977522023 0 0 0
5429 2 -1.2 16.68594636879785 13.424791385114077 7.850492385322594 0 0 0
5430 2 -1.2 8.932802315098257 10.641377360296241 9.830550667693554 0 0 0
5431 2 -1.2 13.589548686702315 13.099943594932776 8.376313132492372 0 0 0
5432 2 -1.2 12.173138955833952 3.3738006492872237 11.318721178707998 0 0 0
5433 2 -1.2 12.871575940276943 12.594103411925657 0.43111561404981025 0 0 0
5434 2 -1.2 14.94525199179294 13.689231146802447 3.2029794101138522 0 0 0
5435 2 -1.2 20.58830017531726 9.963250821886943 4.915900175752174 0 0 0
5436 2 -1.2 7.079569721880375 6.967296848845235 7.4883993655201015 0 0 0
5437 2 -1.2 1.6168209249903476 7.5169403783617215 10.12201038827524 0 0 0
5438 2 -1.2 10.007511087276766 7.283749303930374 0.6829873441690537 0 0 0
5439 2 -1.2 15.518649087791102 11.08661696600494 10.417888184203797 0 0 0
5440 2 -1.2 1.4887072557201977 11.443391947263068 7.209145117214515 0 0 0
5441 2 -1.2 16.95070468041744 14.131147103982578 15.34015895050505 0 0 0
5442 2 -1.2 7.296688872451211 15.927106943355797 0.1767054038519109 0 0 0
5443 2 -1.2 13.544736546426714 1.456733261534633 13.339694418553877 0 0 0
5444 2 -1.2 3.891059660771028 8.948960374257478 12.568266275259226 0 0 0
5445 2 -1.2 14.612148836375876 10.287934063512916 1.624511859174344 0 0 0
5446 2 -1.2 5.3344752876267965 0.6903772756638005 8.581582997825894 0 0 0
5447 2 -1.2 8.739831747991213 3.084392480667012 0.7846359115210845 0 0 0
5448 2 -1.2 10.677817519944423 15.586688283117907 8.644524483931084 0 0 0
5449 2 -1.2 7.504341176110519 0.5984266828487993 13.607234956824453 0 0 0
5450 2 -1.2 3.5979779346664604 4.083797310998916 12.591311265903542 0 0 0
5451 2 -1.2 14.375751482177574 14.371369819712083 8.139171605726125 0 0 0
5452 2 -1.2 17.17888176386393 6.710426509044472 4.5343803187072815 0 0 0
5453 2 -1.2 17.69253031259749 11.070021104727985 1.1328590764643727 0 0 0
5454 2 -1.2 17.692308162630674 7.336346612415742 8.350714092123571 0 0 0
5455 2 -1.2 14.311404804145775 11.463197635423871 3.031331818266115 0 0 0
5456 2 -1.2 8.35940644332628 13.264567110572367 11.377223903182847 0 0 0
5457 2 -1.2 3.6146463391924355 14.588060805022582 9.902808169766288 0 0 0
5458 2 -1.2 16.52971401332923 16.63330392089574 4.998406459973605 0 0 0
5459 2 -1.2 4.416933081057145 16.54076262325163 0.09608235618683045 0 0 0
5460 2 -1.2 20.07926551533922 15.738881696671793 4.9639180307672595 0 0 0
5461 2 -1.2 4.428639916591277 11.066338914879507 6.656697136633241 0 0 0
5462 2 -1.2 14.599843071723914 5.696156088499762 12.523341631736336 0 0 0
5463 2 -1.2 5.050246694430469 9.79901331418037 8.402624735281236 0 0 0
5464 2 -1.2 5.274354481430939 1.3960301945312992 4.25928994616805 0 0 0
5465 2 -1.2 1.6734308388322783 15.21412251055583 16.099049479542693 0 0 0
5466 2 -1.2 18.77155928480896 12.91159215878055 11.042659366996359 0 0 0
5467 2 -1.2 4.115176739334332 0.7021405511640677 4.055745800288505 0 0 0
5468 2 -1.2 18.49074251581688 11.952354754581219 0.2258865876461787 0 0 0
5469 2 -1.2 17.881147091927545 12.86329766003824 8.281853127122988 0 0 0
5470 2 -1.2 2.9646977520850903 11.387417940447817 10.199652382400853 0 0 0
5471 2 -1.2 0.903159965966718 12.068908212945612 4.238178856209861 0 0 0
5472 2 -1.2 15.578765593500107 10.308685764609988 13.34633798015163 0 0 0
5473 2 -1.2 3.0325917981330237 6.505801528396313 3.332875584098679 0 0 0
5474 2 -1.2 16.854313191423884 11.929059833452827 13.170564243816344 0 0 0
5475 2 -1.2 19.830014916261273 6.029039291279057 12.227894732034219 0 0 0
5476 2 -1.2 6.610540513493604 11.010524183029867 12.324138748858202 0 0 0
5477 2 -1.2 8.945187340548046 16.565291564373744 7.891578734463309 0 0 0
5478 2 -1.2 12.353587007473593 2.696076598778807 13.168684836890623 0 0 0
5479 2 -1.2 18.31803508938815 7.905961037847073 9.58315853813454 0 0 0
5480 2 -1.2 15.205978455731588 14.042725735523852 12.271081821916686 0 0 0
5481 2 -1.2 12.735080747693221 10.47309833666091 12.801919856064899 0 0 0
5482 2 -1.2 11.03883435075972 16.260307879915526 5.22141015190796 0 0 0
5483 2 -1.2 16.46069000651324 2.523669704183103 14.173329637804832 0 0 0
5484 2 -1.2 3.453779565636901 7.316311397540601 8.67087190318344 0 0 0
17501 3 1.2 6.0129609009930585 11.640000569295125 8.500516278035478 0 0 0
17502 3 1.2 5.382747499174469 3.076602635285412 4.681510269982301 0 0 0
17503 3 1.2 3.213271102959826 9.714749794528322 7.804109657023852 0 0 0
17504 3 1.2 16.03162082778726 4.071087112240342 1.2022092610824286 0 0 0
17505 3 1.2 20.808818813659254 8.647849042781685 7.57033142488029 0 0 0
17506 3 1.2 19.657564200646256 6.297184220599669 2.442731308409127 0 0 0
17507 3 1.2 1.9017954800082753 10.945684675482873 1.1329809026649127 0 0 0
17508 3 1.2 20.660485291093046 9.79124048240369 12.58544675162478 0 0 0
17509 3 1.2 18.76282857451914 0.9953500048671915 11.067626612482846 0 0 0
17510 3 1.2 21.67071400736651 1.2837583259894387 4.7972749813894735 0 0 0
17511 3 1.2 2.330613566804821 5.178165209490684 2.5926049389055295 0 0 0
17512 3 1.2 10.0762258985052 16.19673328053059 15.289563785467978 0 0 0
17513 3 1.2 0.6059316288240353 4.922056275595692 12.43553495038376 0 0 0
17514 3 1.2 16.352853478046484 10.196012538222186 7.138701698613927 0 0 0
17515 3 1.2 16.842304725392204 12.333979769516297 10.209242468081595 0 0 0
17516 3 1.2 3.862784901429274 5.607900021966325 12.232493961465941 0 0 0
17517 3 1.2 19.525530182449174 11.74473421802187 16.088476497188076 0 0 0
17518 3 1.2 5.030099133260112 8.230966941548632 11.714751725933924 0 0 0
18201 5 0.6 18.12194312219626 15.29800777570736 10.340241167611786 0 0 0
18202 5 0.6 14.79655095024814 8.6557311132025 5.223483300474943 0 0 0
18203 5 0.6 13.91814295430197 8.130765974573848 12.897170868501382 0 0 0
18204 5 0.6 1.4644447878308566 8.12651119216571 8.797445778427544 0 0 0
18205 5 0.6 14.395104614725598 2.5874543368346727 7.6352051165892 0 0 0
18206 5 0.6 6.987213219609259 5.170828578920574 14.106660634091934 0 0 0
18207 5 0.6 1.1319415660249028 14.808298310808013 3.862411512443079 0 0 0
18208 5 0.6 0.8623377043872349 0.07318628167118249 16.65458486438939 0 0 0
18209 5 0.6 19.72996242594935 9.706905706509636 10.789328013970929 0 0 0
18210 5 0.6 2.3510012332593644 10.781661093454392 8.215154333906273 0 0 0
18211 5 0.6 19.28474247064043 9.449832459066437 4.4250402207533694 0 0 0
18212 5 0.6 5.631765463886991 8.876559261036205 9.110007548527904 0 0 0
18213 5 0.6 8.80883076803688 16.77407404853402 11.55784215365251 0 0 0
18214 5 0.6 13.589258482315818 8.222478471091222 3.8698344352639706 0 0 0
18215 5 0.6 21.731434747173473 10.661189609053775 5.763001318002362 0 0 0
18216 5 0.6 1.801330394081845 7.689056597714705 4.231986782950776 0 0 0
18217 5 0.6 16.231954424803416 0.5577099872348962 3.3857602090523646 0 0 0
18218 5 0.6 18.153883905322775 12.843527034970974 13.048971839087182 0 0 0
18219 5 0.6 2.851974332423733 4.336183310286787 7.587422156049415 0 0 0
18220 5 0.6 20.484128038333687 11.81261847026033 11.042255529307631 0 0 0
18221 5 0.6 12.197370378602876 6.168906065555021 3.6046704653115818 0 0 0
18222 5 0.6 11.41098696267982 1.8617919746227327 12.710798095767046 0 0 0
18223 5 0.6 21.029073772515414 2.9007861452049233 15.791486601637587 0 0 0
18224 5 0.6 6.554576394659071 14.167218740158889 14.902522574160892 0 0 0
18225 5 0.6 20.84114714284912 12.706854988789251 7.955588342219046 0 0 0
18226 5 0.6 11.547926047121782 11.443287511352429 5.45389076707705 0 0 0
18227 5 0.6 8.6517846474503 6.305636246785286 9.675129723061769 0 0 0
18228 5 0.6 8.150161452791682 1.8249590581023116 0.35359572863847283 0 0 0
18229 5 0.6 13.240065855796267 4.047051942345876 1.7055259058484236 0 0 0
18230 5 0.6 22.437549136531608 14.094831093425643 11.670595111694366 0 0 0
18231 5 0.6 12.743429154118987 15.963959447495165 12.863116882638367 0 0 0
18232 5 0.6 11.619961493398943 8.755781908432015 1.5171276351970469 0 0 0
18233 5 0.6 20.456264901503577 15.389697671125948 0.933048067076818 0 0 0
18234 5 0.6 1.3604019793570057 12.149503103408454 10.588445995014649 0 0 0
18235 5 0.6 15.322085102929146 10.545462723096653 15.642911498437687 0 0 0
18236 5 0.6 15.903760133871442 12.249295461351435 2.538534854930099 0 0 0
18237 5 0.6 17.42396211492128 13.741313275797152 2.2120844585023756 0 0 0
18238 5 0.6 15.425826720371257 1.4603531414093724 6.768612629793827 0 0 0
18239 5 0.6 1.8418821016746099 15.137577674214622 10.407639119541365 0 0 0
18240 5 0.6 8.98477206640733 7.761750646288576 12.613609980822108 0 0 0
112 1 2.4 20.893361080196332 13.931263017708947 26.408463125095253 0 0 0
113 1 2.4 17.849098514115987 13.506073129247113 25.744709159041076 0 0 0
114 1 2.4 13.98273259414572 15.122397332310806 24.913244116129807 0 0 0
115 1 2.4 7.842125803846554 15.270826187567307 25.372109202317084 0 0 0
116 1 2.4 2.788467034088517 15.5354656864662 24.081579524350506 0 0 0
117 1 2.4 14.90443145668628 1.7225260442799142 31.432406346854336 0 0 0