LAMMPS data file via write_data, version 29 Aug 2024, timestep = 0, units = metal

20300 atoms
5 atom types

0 65.8458427303901 xlo xhi
0 65.8458427303901 ylo yhi
0 65.8458427303901 zlo zhi

Masses

1 28.086
2 15.9994
3 40.078
4 22.99
5 39.1

Atoms # charge

1 1 2.4 6.5664456457741744 4.619552392731655 8.568485510990246 0 0 0
2 1 2.4 7.741678033647209 2.9974762578046663 6.513776174600403 0 0 0
3 1 2.4 13.778941248342214 2.8366781056218477 3.6587843839569687 0 0 0
4 1 2.4 14.386435572047269 6.888153406000563 12.20277462565969 0 0 0
5 1 2.4 6.311849767297247 5.606400306375565 1.3690020658808153 0 0 0
6 1 2.4 2.4609079059262493 9.289940217486926 15.532121547817777 0 0 0
7 1 2.4 21.579928609587263 14.95838234442939 6.10451819534464 0 0 0
8 1 2.4 10.711428856547185 4.45076710200059 3.165341600753033 0 0 0
9 1 2.4 5.293566119067246 11.232234406176866 0.13255658619036473 0 0 0
10 1 2.4 5.340021228446839 1.8531449843284362 0.7241401335107875 0 0 0
11 1 2.4 9.273525237478033 3.0289234599263617 8.280160390806413 0 0 0
12 1 2.4 9.305238891162293 9.273559088171368 3.597852062790694 0 0 0
13 1 2.4 11.9299403676891 5.916645712852191 13.841973017717976 0 0 0
14 1 2.4 18.610066361488393 11.632368182471707 8.90497627373214 0 0 0
15 1 2.4 5.238181110932939 2.218200918332209 12.555849008639946 0 0 0
16 1 2.4 2.1822252661212964 0.5256468733373606 11.204074308746177 0 0 0
17 1 2.4 5.8221527288847605 5.9986170064720366 8.770807548271744 0 0 0
18 1 2.4 6.542975187830218 5.226622111000759 5.483617249353312 0 0 0
19 1 2.4 14.813810448507754 12.580844464848086 15.251913419158882 0 0 0
20 1 2.4 15.27554583304685 3.1580102274025528 4.928651260280891 0 0 0
21 1 2.4 1.7715767101951685 12.568854113870778 11.267612734694993 0 0 0
22 1 2.4 1.2615201968064427 0.00858854026840276 12.655910830264997 0 0 0
23 1 2.4 14.241256203357215 3.1546848567103867 14.884988767441401 0 0 0
24 1 2.4 1.1048865690976415 1.3009168540505618 3.6897795382780996 0 0 0
25 1 2.4 20.956696626358596 9.787434352239973 14.49401758275609 0 0 0
26 1 2.4 4.733461938159557 13.516776336438692 8.302466679253534 0 0 0
27 1 2.4 18.049443013968812 5.1912768666294715 4.048679674640111 0 0 0
28 1 2.4 6.218315549027154 13.877019370278918 5.089605236035743 0 0 0
29 1 2.4 8.639131540035962 7.8005728742228655 5.155420856995904 0 0 0
30 1 2.4 1.0699069060819895 6.0103051234962726 7.675462183429721 0 0 0
31 1 2.4 4.087172082973802 15.88723074380684 11.794839429702044 0 0 0
32 1 2.4 3.9967241342123425 10.18293870894093 11.305624886317007 0 0 0
33 1 2.4 19.36205494528581 7.902691830690733 9.476811222311191 0 0 0
34 1 2.4 15.750314960993927 15.255773256731032 0.06953373941583708 0 0 0
35 1 2.4 8.831108725713756 7.914838771786572 16.092922028902024 0 0 0
36 1 2.4 10.154900001813601 0.9799733100204198 8.950738915667662 0 0 0
37 1 2.4 10.617760400654431 10.465254441864044 15.285471537025664 0 0 0
38 1 2.4 20.549548336373526 14.813768533745266 11.876383051699948 0 0 0
39 1 2.4 16.54483835141105 2.1043217281456115 8.117738723803539 0 0 0
40 1 2.4 4.38435050858631 6.280982503593776 13.5870410852565 0 0 0
41 1 2.4 10.606024819071065 10.762862961385427 12.907811623241944 0 0 0
42 1 2.4 14.978390710447869 13.155912215964253 1.0767250612213963 0 0 0
43 1 2.4 20.306662866092985 15.079918812875388 7.546818725124022 0 0 0
44 1 2.4 2.512222000244826 15.72996793473281 2.5125165380710635 0 0 0
45 1 2.4 15.996755949887074 8.901381569262577 3.765351149822507 0 0 0
46 1 2.4 13.359687012167997 1.9359028773022586 8.873350006348605 0 0 0
47 1 2.4 7.436682765456362 12.91773674464542 14.657985159411602 0 0 0
48 1 2.4 8.615203300523639 0.7137077729589192 11.343163189556064 0 0 0
49 1 2.4 1.6931226078630477 10.90761082572105 9.388986487650095 0 0 0
50 1 2.4 14.523736743777315 9.904451109226825 5.819370349069634 0 0 0
51 1 2.4 5.948126949638379 16.180377840064754 0.2798814572034787 0 0 0
52 1 2.4 18.01433233282579 7.698643469372923 4.019824534169118 0 0 0
53 1 2.4 19.079983955328448 8.036240205401551 15.26569215377695 0 0 0
54 1 2.4 19.863799243087588 12.451235495235869 9.82677124951914 0 0 0
55 1 2.4 14.221523088855095 0.7294430715193201 12.422955172652497 0 0 0
56 1 2.4 2.1319127414564827 10.919000326891682 3.2748044712720814 0 0 0
57 1 2.4 6.574176021907585 2.852298606178768 2.8091663225569676 0 0 0
58 1 2.4 0.23952882449127344 9.164546671036167 15.10975372241775 0 0 0
59 1 2.4 20.866047719767323 0.7056440717464928 7.508222373085257 0 0 0
60 1 2.4 20.662613300870373 5.56718765095273 0.7803296781871154 0 0 0
61 1 2.4 16.607514381888205 1.9668822714273986 2.7772852244557718 0 0 0
62 1 2.4 12.235626570231025 7.60891886454846 10.472774048372473 0 0 0
63 1 2.4 10.072866863222329 5.01171034470455 14.98291128043909 0 0 0
64 1 2.4 12.282478873343816 4.905464516526626 7.147030814608901 0 0 0
65 1 2.4 11.950089778263138 15.338575578739857 8.965462403513092 0 0 0
66 1 2.4 5.7437459684643315 5.133049228125326 13.104400291325575 0 0 0
67 1 2.4 14.672610590629057 9.885171391647106 11.014370638656546 0 0 0
68 1 2.4 16.53360467381245 10.837430519665418 15.093751757661765 0 0 0
69 1 2.4 17.60341993159519 15.307402677616862 11.80925507247404 0 0 0
70 1 2.4 9.442489992075117 11.44831656632747 10.304072065914768 0 0 0
71 1 2.4 15.617089608977198 14.895934744808521 10.081195053638286 0 0 0
72 1 2.4 0.9404004697292923 2.308439446590524 14.740410647162204 0 0 0
73 1 2.4 19.941448195640486 0.5803264440608574 8.36182123309473 0 0 0
74 1 2.4 17.50877682716167 4.940971992798667 11.30859994525977 0 0 0
75 1 2.4 16.843327970138635 14.535296172975533 6.646249452517408 0 0 0
76 1 2.4 10.457003427349465 8.302356051263 10.357407880627974 0 0 0
77 1 2.4 8.212474641686988 14.174939935548542 7.956498212967885 0 0 0
78 1 2.4 8.423569956942808 6.378395999055201 4.669591045663806 0 0 0
79 1 2.4 3.373294228677995 1.685510525185147 14.663022719022665 0 0 0
80 1 2.4 5.249850462898913 0.8074712192936547 6.925180208092704 0 0 0
81 1 2.4 9.274272773622492 15.592763439847042 1.1210665566122298 0 0 0
82 1 2.4 17.116947815621824 4.055048081618446 2.7458818074700195 0 0 0
83 1 2.4 11.659805825159339 9.128537812030979 2.521444995718362 0 0 0
84 1 2.4 11.158353366940126 9.484942011673086 0.6351399151265548 0 0 0
85 1 2.4 15.072186014455044 9.273361135203828 0.2708565373449226 0 0 0
86 1 2.4 3.3736340847331707 7.397471244522342 12.348131710489747 0 0 0
87 1 2.4 4.686019394243616 6.30005350589313 4.884163078552278 0 0 0
88 1 2.4 3.772925855693185 2.018307269693248 11.081275583513515 0 0 0
89 1 2.4 13.035053006679814 11.017119259763916 6.213640995175493 0 0 0
90 1 2.4 21.908677130055963 9.183976509081978 12.4378281064031 0 0 0
91 1 2.4 20.634963784730807 1.78266900595775 1.4595408044094498 0 0 0
92 1 2.4 2.2299267801059863 12.09487964934683 12.525757857934364 0 0 0
93 1 2.4 20.518178003534608 14.339326353210344 5.273625178478697 0 0 0
94 1 2.4 14.781945233249989 3.7889134706987355 7.338781746422463 0 0 0
95 1 2.4 17.877115051944443 6.092299260201746 2.9882204541410333 0 0 0
96 1 2.4 13.046428893984649 4.674129000929594 3.9957412682931213 0 0 0
97 1 2.4 6.950146995461834 0.595549014999944 0.8242000847623839 0 0 0
98 1 2.4 0.8352338776962688 12.611280868096186 0.029800966863450552 0 0 0
99 1 2.4 6.723101166050947 3.69517246884545 12.13398912761109 0 0 0
100 1 2.4 7.596954821446948 6.930629832439017 1.7998037424660283 0 0 0
101 1 2.4 3.8403040663577728 15.064567492786564 12.92055291383016 0 0 0
102 1 2.4 1.575439568660483 8.384052859912986 0.6729735227383491 0 0 0
103 1 2.4 15.549717254727852 1.9481032926817698 16.388203098623677 0 0 0
104 1 2.4 7.805048279294449 14.527711164719928 10.856701161334607 0 0 0
105 1 2.4 11.135105299466051 13.829728357274623 0.4196624375151184 0 0 0
106 1 2.4 12.478923921275657 14.265248587480457 11.319628433691891 0 0 0
107 1 2.4 13.250314563473808 7.396754124942907 0.29550293893991597 0 0 0
108 1 2.4 19.812506796042104 6.3750334968506905 14.00185922486353 0 0 0
109 1 2.4 14.261149679386635 8.275122831195349 13.569577316329594 0 0 0
110 1 2.4 9.755858339644822 10.562715739165059 7.171427015427079 0 0 0
111 1 2.4 19.534247473874984 4.725439691781721 10.378566924924929 0 0 0
5251 2 -1.2 21.06246547864385 9.606780990028895 7.161724499126505 0 0 0
5252 2 -1.2 21.10943923338372 8.94456413833462 5.230519509351293 0 0 0
5253 2 -1.2 15.315469874281318 15.702943951197142 9.2413243668399 0 0 0
5254 2 -1.2 2.8365205649856606 1.010998911568435 3.631282290039819 0 0 0
5255 2 -1.2 2.2492939146482933 8.369096249946706 12.680600741039193 0 0 0
5256 2 -1.2 5.55209352254478 10.476684447351609 9.852045575343107 0 0 0
5257 2 -1.2 20.878721063673996 16.169006919981225 6.706355804501589 0 0 0
5258 2 -1.2 17.297537431826157 10.315962029962751 8.269928466832738 0 0 0
5259 2 -1.2 17.889264384665353 12.748606109386257 3.4506357654235 0 0 0
5260 2 -1.2 3.4876468686433704 14.080891241931122 7.580330114316312 0 0 0
5261 2 -1.2 7.412844947768895 7.350591253750059 14.58623956540787 0 0 0
5262 2 -1.2 11.675133045026277 3.3497511941116462 1.072784950900016 0 0 0
5263 2 -1.2 21.790636972171097 0.6583248498310852 2.3641724055110216 0 0 0
5264 2 -1.2 18.766513933031298 7.212993888453341 6.591816587118699 0 0 0
5265 2 -1.2 9.516296216373693 0.8385164750938684 1.9360525991641697 0 0 0
5266 2 -1.2 0.948742519305927 10.821581220309895 12.09794841093346 0 0 0
5267 2 -1.2 16.031570621434582 1.4189816947326512 12.630274970450902 0 0 0
5268 2 -1.2 10.382510438712758 7.369707911558811 6.65069370513933 0 0 0
5269 2 -1.2 20.791846601375045 4.678459130108953 10.92637965539105 0 0 0
5270 2 -1.2 15.58534047952103 8.05505781809066 2.30409496766073 0 0 0
5271 2 -1.2 14.708056007296653 13.00370475038003 10.913717472401387 0 0 0
5272 2 -1.2 12.765009407226525 15.757491645261192 4.1826202758628215 0 0 0
5273 2 -1.2 15.788970674393468 6.483921058892361 0.3915180082948399 0 0 0
5274 2 -1.2 18.449582616017032 14.061609991258404 12.749563709932918 0 0 0
5275 2 -1.2 14.01827540068496 8.729369976308696 9.983588511106905 0 0 0
5276 2 -1.2 3.4046118231178757 1.2735784331415791 5.133838433737395 0 0 0
5277 2 -1.2 16.177405448703805 16.168742584086992 2.263662430141615 0 0 0
5278 2 -1.2 6.469119996541375 15.013433996822823 9.515841746286196 0 0 0
5279 2 -1.2 7.667942178317112 14.789967602275263 6.929184217730124 0 0 0
5280 2 -1.2 0.0397016814264439 8.807732430341563 10.104498833711805 0 0 0
5281 2 -1.2 17.869850184168097 15.68335200389802 9.188679762434509 0 0 0
5282 2 -1.2 13.583747756207934 14.511792324266143 6.692120576113271 0 0 0
5283 2 -1.2 7.413218807826705 13.634057245348618 4.067420816650618 0 0 0
5284 2 -1.2 19.882859145793653 3.5618066241866395 9.412890780249834 0 0 0
5285 2 -1.2 11.67168990213022 11.326691270473333 7.368849287495919 0 0 0
5286 2 -1.2 5.214836765218768 4.944838882598596 10.453574082290364 0 0 0
5287 2 -1.2 0.6395315519968813 15.734429357996278 11.649814596785907 0 0 0
5288 2 -1.2 17.308797018696378 2.018310366541098 11.133324305333531 0 0 0
5289 2 -1.2 21.834171294099956 8.035403473906632 1.2027459186639295 0 0 0
5290 2 -1.2 3.746037152283414 11.02076817440179 1.6951065835081345 0 0 0
5291 2 -1.2 15.260105562902446 7.0367608319516 7.705758829920379 0 0 0
5292 2 -1.2 14.249254870764785 5.896602514960861 6.205159710093035 0 0 0
5293 2 -1.2 19.22073130547868 3.126615886327332 4.050702652170995 0 0 0
5294 2 -1.2 6.085096482691704 13.622824303634657 12.812897621276171 0 0 0
5295 2 -1.2 12.69415959945989 10.209941658440703 4.223298016275589 0 0 0
5296 2 -1.2 3.134947020281841 12.380385564821795 4.2771599271810254 0 0 0
5297 2 -1.2 18.978594567155135 15.97670416667497 1.1202747754039293 0 0 0
5298 2 -1.2 7.34211328014847 3.7886227042812664 2.451870568014432 0 0 0
5299 2 -1.2 8.032327261488046 15.346686529878395 13.594532728148698 0 0 0
5300 2 -1.2 10.837353497073341 13.799233052593648 14.651818507471434 0 0 0
5301 2 -1.2 19.34996249031502 2.202329327804535 9.185397931583406 0 0 0
5302 2 -1.2 9.246026976293372 1.7865468420416657 0.788489136388022 0 0 0
5303 2 -1.2 20.94903382896441 12.690484009003901 14.280135595024754 0 0 0
5304 2 -1.2 16.087127703926672 13.325068913804335 12.72210825270468 0 0 0
5305 2 -1.2 5.45794223434412 8.37620918820723 0.5360686248857022 0 0 0
5306 2 -1.2 5.163950618478871 5.697326120223628 15.104772611290771 0 0 0
5307 2 -1.2 7.608436338859151 2.3629647881587035 9.306028158098082 0 0 0
5308 2 -1.2 2.8372189501686935 12.748758682801139 6.0149371493482455 0 0 0
5309 2 -1.2 8.949019674520986 14.268873463220165 6.397072260570151 0 0 0
5310 2 -1.2 16.7179779941908 14.845217790211574 13.677294637826167 0 0 0
5311 2 -1.2 15.225277400136578 14.292413799542844 6.964448453467544 0 0 0
5312 2 -1.2 1.2380373821329453 0.407978705136849 8.930453274450072 0 0 0
5313 2 -1.2 10.554810191826018 5.994578348932925 6.7389330188081855 0 0 0
5314 2 -1.2 6.397750838191686 0.7371587606218363 10.408856457864088 0 0 0
5315 2 -1.2 8.149455903601687 8.552492622144793 0.26881994594824066 0 0 0
5316 2 -1.2 18.633113716427538 3.9142062622778493 6.0677624440940505 0 0 0
5317 2 -1.2 0.07507786361437421 10.762641889375518 9.192254352723975 0 0 0
5318 2 -1.2 2.0453119362571757 4.027807410718838 5.832825110475957 0 0 0
5319 2 -1.2 12.361383306412344 14.135416491513721 2.1444016236139705 0 0 0
5320 2 -1.2 10.750732853650675 6.5746191164450565 10.299388497476297 0 0 0
5321 2 -1.2 14.179246792376235 14.495998185596585 4.6234028784365355 0 0 0
5322 2 -1.2 5.465829783171397 9.250556867490005 12.074585453470327 0 0 0
5323 2 -1.2 0.6704214134911016 8.133589648237637 5.271709640104915 0 0 0
5324 2 -1.2 15.784944066965299 4.6545727440353994 4.54294529951643 0 0 0
5325 2 -1.2 11.648305941293051 13.38751786254704 8.768106085104904 0 0 0
5326 2 -1.2 2.562941745071024 12.180763733570881 7.371021342989657 0 0 0
5327 2 -1.2 15.165756659014704 1.6149587200349182 14.124002706150048 0 0 0
5328 2 -1.2 14.688076524750203 6.437755244160961 14.632782582339809 0 0 0
5329 2 -1.2 3.122935911225377 8.047203843999977 1.9940378863276338 0 0 0
5330 2 -1.2 8.568279892557731 2.2221028546380093 12.289849769831712 0 0 0
5331 2 -1.2 6.810045782685357 16.364804174798874 5.178681005242779 0 0 0
5332 2 -1.2 1.6694255587744014 7.706363175179087 2.0732345575829085 0 0 0
5333 2 -1.2 16.1656487104371 16.110770726818167 15.618298268832753 0 0 0
5334 2 -1.2 8.603412496930586 0.08319997566991771 15.579293746114946 0 0 0
5335 2 -1.2 19.749770116406058 5.493142540103642 7.375163514967805 0 0 0
5336 2 -1.2 18.382718635404895 9.658014259684766 12.243332110257912 0 0 0
5337 2 -1.2 16.337371989922307 5.046848897478225 12.943983174075782 0 0 0
5338 2 -1.2 18.609981274827163 10.202316667119781 7.761754346347235 0 0 0
5339 2 -1.2 7.244179023658437 3.953642136040785 10.408065473864147 0 0 0
5340 2 -1.2 11.19747323957489 8.514214080283931 15.37979419436133 0 0 0
5341 2 -1.2 0.10197282204356568 1.8653090960658212 7.628837912569037 0 0 0
5342 2 -1.2 7.153960456270919 2.1045628530118963 12.170324351453095 0 0 0
5343 2 -1.2 14.77472813665137 14.18285639850971 9.31680574053061 0 0 0
5344 2 -1.2 11.953890285136376 13.367851866856249 7.4709301619337865 0 0 0
5345 2 -1.2 16.24312350362575 1.3127652406165156 5.288084361091754 0 0 0
5346 2 -1.2 6.797638890341252 5.379692738603139 10.1537888773344 0 0 0
5347 2 -1.2 9.211040077078781 6.374316315947537 1.9481997855548876 0 0 0
5348 2 -1.2 4.357184897919747 10.629463143385841 9.615723337498732 0 0 0
5349 2 -1.2 20.02840844982345 13.512778428511393 6.955470875520681 0 0 0
5350 2 -1.2 4.505766383937305 5.696474885668973 0.7980734512186662 0 0 0
5351 2 -1.2 8.341314213248634 6.668809069251056 13.049699778551764 0 0 0
5352 2 -1.2 1.9510467085851115 0.012351455701398216 10.053387782229512 0 0 0
5353 2 -1.2 6.578113403323433 3.1820253319639833 13.475457241902314 0 0 0
5354 2 -1.2 18.23017293884407 13.810358647136082 4.10215779104513 0 0 0
5355 2 -1.2 17.497583439246984 14.351229501858088 7.792316309911643 0 0 0
5356 2 -1.2 6.307846708177483 4.172828410902487 6.904594172633634 0 0 0
5357 2 -1.2 5.2972402990776795 7.138335111140135 2.8727581614657334 0 0 0
5358 2 -1.2 12.949111646101462 15.209212087978033 7.666083272398574 0 0 0
5359 2 -1.2 1.6346258808763856 15.440761316738596 14.40924995817486 0 0 0
5360 2 -1.2 3.718679046460373 12.13398271928237 11.272626960630667 0 0 0
5361 2 -1.2 9.885122853922878 10.19859710755669 11.092959499862944 0 0 0
5362 2 -1.2 9.007689855649126 12.65096672800292 8.571621115431467 0 0 0
5363 2 -1.2 21.82990159944647 2.1204881631181216 16.44364038522912 0 0 0
5364 2 -1.2 21.246628060059077 10.072678507416938 1.8460143235128879 0 0 0
5365 2 -1.2 20.57278521226873 10.280885322160504 11.348285007958145 0 0 0
5366 2 -1.2 17.38715462815538 2.0577979361998326 16.34248025578231 0 0 0
5367 2 -1.2 6.652935945630388 9.653482007524921 1.9156127901149822 0 0 0
5368 2 -1.2 20.56108366534986 11.150514447822655 9.427913865128385 0 0 0
5369 2 -1.2 5.4732128217558165 1.6456008950248344 2.360295918548942 0 0 0
5370 2 -1.2 6.625668046999183 12.282808825618241 10.450972392815652 0 0 0
5371 2 -1.2 8.608073590225747 12.576352257077273 5.597220145520315 0 0 0
5372 2 -1.2 20.149057012130346 0.03204047844897694 11.737579448834609 0 0 0
5373 2 -1.2 7.8912171202114285 14.158880387819657 1.4270504551519618 0 0 0
5374 2 -1.2 17.364316785704965 13.297236254375559 5.859500346017076 0 0 0
5375 2 -1.2 9.963596978449514 12.196353418958598 6.003492732786527 0 0 0
5376 2 -1.2 3.228416450041957 3.0208660137333556 4.550347685734447 0 0 0
5377 2 -1.2 2.1516745247976137 13.826079289327451 4.935620179785446 0 0 0
5378 2 -1.2 21.160740817663456 15.174335632782816 14.110085379925211 0 0 0
5379 2 -1.2 8.78770959192521 2.809867222012513 13.969162674598188 0 0 0
5380 2 -1.2 3.1579181498372613 3.381103620424378 1.2462721458617758 0 0 0
5381 2 -1.2 20.968744284352066 14.734894057313863 3.1499122768926133 0 0 0
5382 2 -1.2 0.5180825005134704 15.761345718403682 3.1121848513016666 0 0 0
5383 2 -1.2 9.830013097304928 5.810715855140578 11.316608179167629 0 0 0
5384 2 -1.2 8.772008665309762 2.3077645177303174 3.3968812936751664 0 0 0
5385 2 -1.2 5.743460414563045 0.33374480921633165 12.352376415727413 0 0 0
5386 2 -1.2 2.076751043647856 5.658143482761638 15.020612091535641 0 0 0
5387 2 -1.2 7.832145115409249 9.023336633419982 12.242989801253945 0 0 0
5388 2 -1.2 18.75918170114874 15.671858099094417 13.548149919434758 0 0 0
5389 2 -1.2 2.1278409077849547 8.329534539910725 6.225367470186469 0 0 0
5390 2 -1.2 4.352855964552924 3.7189227775847495 16.230371726681447 0 0 0
5391 2 -1.2 19.232482769905477 3.0959503163383095 15.421209689785247 0 0 0
5392 2 -1.2 18.794087223787145 9.71639250924476 5.718931509215205 0 0 0
5393 2 -1.2 11.98122490397473 11.859891570350596 13.831677991636617 0 0 0
5394 2 -1.2 6.347460267418564 11.499491271830923 14.40139196738053 0 0 0
5395 2 -1.2 5.0698956085183084 5.2149992424143985 7.675593109571511 0 0 0
5396 2 -1.2 13.44620043106658 7.3583942371677225 14.039296405288626 0 0 0
5397 2 -1.2 11.930363685326935 13.031345251932786 14.546727956850972 0 0 0
5398 2 -1.2 12.623331929556107 5.0344627325514155 2.3072374403585685 0 0 0
5399 2 -1.2 19.554389678911942 14.026266096008953 11.337300825913585 0 0 0
5400 2 -1.2 5.007746379456164 14.206390081208788 9.77235448159688 0 0 0
5401 2 -1.2 20.599989702173655 6.58584804145537 1.486402954648544 0 0 0
5402 2 -1.2 9.277586799426492 5.445752397306276 1.039146284327264 0 0 0
5403 2 -1.2 6.123920223083517 7.6750017649414035 1.748754535955162 0 0 0
5404 2 -1.2 8.302217214361356 8.02397607467716 6.679975260096007 0 0 0
5405 2 -1.2 4.921356497191137 10.860178921470496 2.3510845132584497 0 0 0
5406 2 -1.2 15.742187360465461 10.346876635577914 1.0849631977548166 0 0 0
5407 2 -1.2 1.238937614339726 15.5381814044999 5.602596702654476 0 0 0
5408 2 -1.2 9.367958768099111 9.873047079003875 4.77857623506741 0 0 0
5409 2 -1.2 12.823448796535168 10.260666799754242 0.7647925778891339 0 0 0
5410 2 -1.2 19.479836102440068 12.075318210598311 12.985870463538042 0 0 0
5411 2 -1.2 17.783009296605737 4.757094811975425 15.63943017738369 0 0 0
5412 2 -1.2 7.7580936268933 15.510981023284204 9.366688723200028 0 0 0
5413 2 -1.2 17.60252573977481 0.2787207524968137 9.404853356251344 0 0 0
5414 2 -1.2 11.4950350917455 5.352216002044129 9.273176642792784 0 0 0
5415 2 -1.2 14.661122572902556 14.343585653493324 11.01384230414854 0 0 0
5416 2 -1.2 7.984799170982972 6.692182175789817 10.806444993168297 0 0 0
5417 2 -1.2 18.398427227485318 10.288950433818487 15.206931182881636 0 0 0
5418 2 -1.2 17.332543893307367 6.056975571117972 1.9155625966503194 0 0 0
5419 2 -1.2 6.437319385822426 7.307311486582121 11.487462808161753 0 0 0
5420 2 -1.2 21.328632805768077 5.56374230040276 8.720165715231563 0 0 0
5421 2 -1.2 10.774655727337514 13.571300788812936 2.8531395076866346 0 0 0
5422 2 -1.2 18.571115987615176 15.451861799217772 3.4375307945149616 0 0 0
5423 2 -1.2 17.324364075631486 0.27046535333626764 2.3480451257336084 0 0 0
5424 2 -1.2 11.545893305531024 4.130259600280142 15.75486407717672 0 0 0
5425 2 -1.2 19.925757786042986 0.2549832604149539 5.523880318772737 0 0 0
5426 2 -1.2 4.380612889187736 9.30865600213929 0.8591005481939041 0 0 0
5427 2 -1.2 16.29867430043656 13.113209014409948 7.6682865723275535 0 0 0
5428 2 -1.2 8.72547665598553 10.394396570028254 9.602388739921372 0 0 0
5429 2 -1.2 13.274142385394944 12.795900771151882 8.18190329559345 0 0 0
5430 2 -1.2 11.890606781890805 3.295496504780839 11.056019593481771 0 0 0
5431 2 -1.2 12.572833410049116 12.301800873628343 0.42110964664072603 0 0 0
5432 2 -1.2 14.59838052744103 13.371511267850208 3.1286399370233133 0 0 0
5433 2 -1.2 20.110456520740495 9.732008993098033 4.8018047096130045 0 0 0
5434 2 -1.2 6.915256619782222 6.805589541276213 7.314597541703662 0 0 0
5435 2 -1.2 1.5792953588671275 7.3424761325985735 9.887083833173035 0 0 0
5436 2 -1.2 9.775242000929616 7.114697300764822 0.6671355659363521 0 0 0
5437 2 -1.2 15.158469377418767 10.829302397885334 10.176094460558744 0 0 0
5438 2 -1.2 1.4541551407028963 11.177796818851734 7.041824638114742 0 0 0
5439 2 -1.2 16.557287710431122 13.803170587318794 14.98412190265368 0 0 0
5440 2 -1.2 7.127336548683279 15.557447140271504 0.17260416405838536 0 0 0
5441 2 -1.2 13.230370311404387 1.4229232461614472 13.030087103835346 0 0 0
5442 2 -1.2 3.8007502057579257 8.741259695061801 12.276563403359981 0 0 0
5443 2 -1.2 14.273008521646817 10.049156506886483 1.5868077905003402 0 0 0
5444 2 -1.2 5.210664912560233 0.6743539809949457 8.382408954956095 0 0 0
5445 2 -1.2 8.53698483458488 3.012805348045059 0.7664249233248417 0 0 0
5446 2 -1.2 10.42999097267312 15.22492941868853 8.443889602163033 0 0 0
5447 2 -1.2 7.330169351227055 0.5845375132382093 13.291418166458781 0 0 0
5448 2 -1.2 3.5144707528813046 3.9890145161580874 12.299073531851745 0 0 0
5449 2 -1.2 14.042097826118754 14.037817859742196 7.950265699352643 0 0 0
5450 2 -1.2 16.780168923382416 6.554681027409479 4.4291397284554614 0 0 0
5451 2 -1.2 17.281895958557065 10.813091717848982 1.1065660111501618 0 0 0
5452 2 -1.2 17.281678964574525 7.166073853292023 8.15689839553246 0 0 0
5453 2 -1.2 13.979244600753214 11.197142827372566 2.960976195803816 0 0 0
5454 2 -1.2 8.16538900182033 12.956703461289965 11.113164500388987 0 0 0
5455 2 -1.2 3.5307522924758943 14.249479560874162 9.672969183248751 0 0 0
5456 2 -1.2 16.146068016040562 16.247253656154815 4.882396066227872 0 0 0
5457 2 -1.2 4.314418379624741 16.156860193518405 0.0938523350665971 0 0 0
5458 2 -1.2 19.61323628838197 15.373590502894398 4.848708095384395 0 0 0
5459 2 -1.2 4.325853505642909 10.809494989696665 6.5021986855667 0 0 0
5460 2 -1.2 14.26098836734168 5.563951291639865 12.23268143726353 0 0 0
5461 2 -1.2 4.933033116017909 9.571583351851187 8.207604219874261 0 0 0
5462 2 -1.2 5.151939478760547 1.3636290655224024 4.160434059259083 0 0 0
5463 2 -1.2 1.6345913862839936 14.861010702406736 15.72539898032666 0 0 0
5464 2 -1.2 18.33588123395602 12.611920873097962 10.786365031706943 0 0 0
5465 2 -1.2 4.019665644411096 0.6858442370372211 3.9616140663065194 0 0 0
5466 2 -1.2 18.06158207496666 11.674946866212938 0.22064387835781651 0 0 0
5467 2 -1.2 17.466135041312754 12.564747264355237 8.08963565743227 0 0 0
5468 2 -1.2 2.8958886713689345 11.123121939392801 9.962923797315323 0 0 0
5469 2 -1.2 0.8821980965977081 11.788795179906613 4.139812946632283 0 0 0
5470 2 -1.2 15.217190610543645 10.06942657187924 13.036576471851003 0 0 0
5471 2 -1.2 2.962206932198501 6.354805285296701 3.2555212889021914 0 0 0
5472 2 -1.2 16.46313341736819 11.652192607992621 12.864882351794567 0 0 0
5473 2 -1.2 19.369770665050186 5.889108449781731 11.944091705228722 0 0 0
5474 2 -1.2 6.457113333454596 10.754975688514888 12.038101948873825 0 0 0
5475 2 -1.2 8.73757423148692 16.18081983077527 7.708419328842387 0 0 0
5476 2 -1.2 12.066866728843681 2.633502074218306 12.863046564918397 0 0 0
5477 2 -1.2 17.89288309737122 7.722467826503891 9.360738452005203 0 0 0
5478 2 -1.2 12.439506199333785 10.230023214318772 12.504794007037559 0 0 0
5479 2 -1.2 10.782628792092064 15.882914657759317 5.100223959372108 0 0 0
5480 2 -1.2 16.078646020240036 2.4650966532695913 13.844374086643334 0 0 0
5481 2 -1.2 3.3736191524073975 7.146503645251572 8.469625511625992 0 0 0
5482 2 -1.2 12.08243961153217 0.9835704981006341 3.562836249442215 0 0 0
5483 2 -1.2 2.096198358953812 3.2799581780084615 13.286732451690115 0 0 0
5484 2 -1.2 0.28607199473251144 1.2654961508420508 0.9866052863464899 0 0 0
5485 2 -1.2 16.560736004519644 5.9128066026973345 15.163891375429305 0 0 0
5486 2 -1.2 15.174266766245472 12.952645486779115 8.756629626899587 0 0 0
5487 2 -1.2 17.920539389781826 11.620875258847617 13.280937114873383 0 0 0
5488 2 -1.2 4.568738485333692 10.535099368496047 3.9439842940700913 0 0 0
17501 3 1.2 5.873403230505896 11.369842257829673 8.303223751236423 0 0 0
17502 3 1.2 5.257816751382425 3.005196300891289 4.572854870687661 0 0 0
17503 3 1.2 3.1386927650732908 9.489275544318895 7.622980362838562 0 0 0
17504 3 1.2 15.659535312232027 3.976599314449949 1.1743066143369545 0 0 0
17505 3 1.2 20.325857037083573 8.447136999745462 7.394628000915307 0 0 0
17506 3 1.2 19.201322440145045 6.151029875855756 2.386036795233208 0 0 0
17507 3 1.2 1.8576558038482096 10.691641071948856 1.1066850098284493 0 0 0
17508 3 1.2 20.180966257818934 9.563990923425486 12.293345129875183 0 0 0
17509 3 1.2 18.327353158875344 0.972248453021792 10.810752800513647 0 0 0
17510 3 1.2 21.167748095154753 1.2539629681959101 4.685932743827528 0 0 0
17511 3 1.2 2.276521247638844 5.057982709399116 2.5324319373303132 0 0 0
17512 3 1.2 9.842361977410093 15.820815591499978 14.934701024874874 0 0 0
17513 3 1.2 15.973312321070534 9.959368432012017 6.973016174333073 0 0 0
17514 3 1.2 16.451403661538208 12.04771456460116 9.972291302134586 0 0 0
17515 3 1.2 3.7731316887587205 5.477743602146386 11.948584188956273 0 0 0
17516 3 1.2 19.072352862297407 11.472145093471385 15.715071391350081 0 0 0
17517 3 1.2 4.913353169180861 8.039930513550294 11.442858479307823 0 0 0
18201 4 0.6 13.579849591310904 14.841177630241326 11.62016874827171 0 0 0
18202 4 0.6 6.671985637937108 0.5924469546334589 14.533714235637508 0 0 0
18203 4 0.6 4.792148431397165 12.173027225065491 9.035208353661323 0 0 0
18204 4 0.6 2.363137721048562 12.212511237948476 14.184585574098996 0 0 0
18205 4 0.6 6.684113721989106 6.891627425389544 4.744775765859946 0 0 0
18206 4 0.6 4.725139450849541 5.332417577780413 5.750273694466728 0 0 0
18207 4 0.6 2.6484257840089085 0.30246609401480906 13.417751866857913 0 0 0
18208 4 0.6 2.5625879072077318 6.233810765224506 10.9217470776256 0 0 0
18209 4 0.6 8.063690542099184 15.702601918149913 3.4927749420648704 0 0 0
18210 4 0.6 5.979407289918477 15.142315084542778 2.707472952704567 0 0 0
18211 4 0.6 19.169784754874772 2.8638953815223496 0.1786413309641784 0 0 0
18212 4 0.6 3.6519120186492513 9.359872714390812 5.662427864446021 0 0 0
18213 4 0.6 11.099031437317867 0.14891180623430408 0.6187036251250293 0 0 0
18214 4 0.6 6.237228612086143 2.5196565507538824 8.990772879669885 0 0 0
18215 4 0.6 21.720342665320338 4.447078756210881 7.021156643504148 0 0 0
18216 4 0.6 12.627346916139372 6.6684995071134665 7.846888932067794 0 0 0
18217 4 0.6 6.731326179308328 10.241284824871743 4.241154379656706 0 0 0
18218 4 0.6 21.728594967633036 11.4518382649086 3.6474173885915073 0 0 0
18219 4 0.6 1.136488123022093 5.661491819186872 5.4502596600503 0 0 0
18220 4 0.6 4.50163607809894 2.1242673906605862 14.115274961037679 0 0 0
18221 4 0.6 1.779369360566044 11.848243436391677 15.599018735224192 0 0 0
18222 4 0.6 10.891877213562944 8.337537867921 9.04561587810667 0 0 0
18223 4 0.6 0.8738975631793834 3.9734154789031 13.509425308836015 0 0 0
18224 4 0.6 2.6412576237386975 11.518881893357918 11.070354319605476 0 0 0
18225 4 0.6 12.733309060789463 9.736510920678434 14.619858823023304 0 0 0
18226 4 0.6 7.416624665901118 5.030471171629117 1.066915749662777 0 0 0
18227 4 0.6 7.228929439620775 11.037254136616358 15.391302602224668 0 0 0
18228 4 0.6 17.615017473485267 12.689761033009225 2.1290780525083606 0 0 0
18229 4 0.6 15.079575154749584 1.7709566047404706 2.1467417367618418 0 0 0
18230 4 0.6 9.723894331874446 0.11037898556925961 11.456014011623344 0 0 0
18231 4 0.6 6.3512493067561975 9.336032689049436 0.05817833423341947 0 0 0
18232 4 0.6 11.428565300004287 7.573752624115291 12.046355661632077 0 0 0
19881 5 0.6 14.453130759120636 8.45483613144363 5.102248991247605 0 0 0
19882 5 0.6 13.59511015229441 7.942055158493137 12.597834293406459 0 0 0
19883 5 0.6 1.4304557919747571 7.937899127354313 8.593261673576354 0 0 0
19884 5 0.6 14.061001782605349 2.527400878033549 7.457996008246774 0 0 0
19885 5 0.6 6.825043663515068 5.05081635817864 13.779252435558382 0 0 0
19886 5 0.6 1.1056697956470285 14.464605469599942 3.772766965935163 0 0 0
19887 5 0.6 0.8423232983102463 0.07148766643821786 16.268040680105553 0 0 0
19888 5 0.6 19.272040340590372 9.48161351347121 10.538913366587641 0 0 0
19889 5 0.6 2.296435727042297 10.531424391277255 8.024484908242266 0 0 0
19890 5 0.6 18.837153707057592 9.230506801342056 4.32233735685842 0 0 0
19891 5 0.6 5.501055139670461 8.67053897372536 8.898569048839166 0 0 0