LAMMPS data file via write_data, version 29 Aug 2024, timestep = 0, units = metal

20300 atoms
5 atom types

0 65.9055628824254 xlo xhi
0 65.9055628824254 ylo yhi
0 65.9055628824254 zlo zhi

Masses

1 28.086
2 15.9994
3 40.078
4 22.99
5 39.1

Atoms # charge

1 1 2.4 6.572401209801243 4.623742184520919 8.576256863534459 0 0 0
2 1 2.4 5.683081559305912 18.39115062005964 2.978552767231857 0 0 0
3 1 2.4 14.627699924771628 20.00308419000675 7.559718191509441 0 0 0
4 1 2.4 9.588737808868352 18.815106120281456 10.59785369334647 0 0 0
5 1 2.4 7.748699497265965 3.000194876481494 6.519683969038752 0 0 0
6 1 2.4 14.662856690227967 17.732775272868498 9.798656773206162 0 0 0
7 1 2.4 13.791438323815996 2.839250885325444 3.6621027887432653 0 0 0
8 1 2.4 6.891048117521408 21.771726760889102 9.726547037330631 0 0 0
9 1 2.4 14.399483626168568 6.894400749061129 12.213842166535136 0 0 0
10 1 2.4 0.8049860659024644 18.760418725510707 14.144690135359745 0 0 0
11 1 2.4 6.3175744207012645 5.611485138838541 1.3702437086044994 0 0 0
12 1 2.4 11.196664842492675 21.96397844987171 11.528102529190546 0 0 0
13 1 2.4 2.4631398736282732 9.298365907237132 15.546208703844687 0 0 0
14 1 2.4 10.721143792726945 4.454803810727874 3.168212468127525 0 0 0
15 1 2.4 5.298367220554154 11.24242169695511 0.1326768109327677 0 0 0
16 1 2.4 1.0796011547800148 20.8268157207251 11.847349665462232 0 0 0
17 1 2.4 5.344864463287653 1.8548257297729238 0.7247969063164026 0 0 0
18 1 2.4 6.522299710929705 19.340168122109564 3.9694921733622994 0 0 0
19 1 2.4 9.28193603934677 3.031670600247289 8.287670241343832 0 0 0
20 1 2.4 9.313678456338494 9.281969920741641 3.6011152038377325 0 0 0
21 1 2.4 11.940760456292837 5.922011928346726 13.854527261065902 0 0 0
22 1 2.4 5.242931979922713 2.2202127582691666 12.567236777109983 0 0 0
23 1 2.4 2.1842044772493496 0.5261236188673878 11.21423605918307 0 0 0
24 1 2.4 5.827433242152171 6.004057567406079 8.778762400674497 0 0 0
25 1 2.4 6.548909464874562 5.231362496333483 5.4885907213639245 0 0 0
26 1 2.4 14.827246118483599 12.592254903427323 15.265746435040398 0 0 0
27 1 2.4 15.289400282800147 3.160874445447141 4.933121395226208 0 0 0
28 1 2.4 1.7731834757264147 12.580253677570846 11.27783211252794 0 0 0
29 1 2.4 1.262664356784125 0.008596329809994481 12.667389351726456 0 0 0
30 1 2.4 14.254172584261026 3.1575460587461417 14.898488993961017 0 0 0
31 1 2.4 1.1058886671975692 1.3020967455833847 3.6931260547150586 0 0 0
32 1 2.4 4.737755042399375 13.529035636409148 8.309996760907788 0 0 0
33 1 2.4 6.223955369775016 13.889605399589579 5.0942213512814725 0 0 0
34 1 2.4 8.646966966353403 7.807647753648715 5.160096664983454 0 0 0
35 1 2.4 1.0708772787045473 6.015756285192591 7.682423591311043 0 0 0
36 1 2.4 4.09087902221352 15.90163997294109 11.805536985914634 0 0 0
37 1 2.4 4.000349039947327 10.192174320828443 11.315878740001125 0 0 0
38 1 2.4 15.764600011728653 15.269609773366387 0.06959680437661979 0 0 0
39 1 2.4 8.839118269427841 7.922017286863391 16.10751781369885 0 0 0
40 1 2.4 10.16411018345703 0.9808621156403065 8.958856960280754 0 0 0
41 1 2.4 4.404920730232509 21.555596054043335 2.023715613888527 0 0 0
42 1 2.4 10.627390382428647 10.474746105429126 15.29933498908687 0 0 0
43 1 2.4 4.565704306487301 21.717083988897468 14.023358527913205 0 0 0
44 1 2.4 4.388326979508262 6.286679161339984 13.599364113190758 0 0 0
45 1 2.4 4.020574145787576 20.587713765743413 13.500128116236612 0 0 0
46 1 2.4 10.61564415703411 10.772624546714676 12.919518610966884 0 0 0
47 1 2.4 14.99197564965405 13.167844223288046 1.0777016177007424 0 0 0
48 1 2.4 2.5145005082504923 15.74423453134118 2.5147953132134697 0 0 0
49 1 2.4 16.011264515011078 8.909454848282138 3.7687662073843704 0 0 0
50 1 2.4 13.371803836957946 1.9376586816076486 8.881397861603665 0 0 0
51 1 2.4 7.443427607757337 12.92945273414989 14.671279500647927 0 0 0
52 1 2.4 7.2633506026419 18.031120350575247 15.261598726238981 0 0 0
53 1 2.4 8.623017024664568 0.7143550839347146 11.353451089325457 0 0 0
54 1 2.4 1.6946582179389944 10.917503692906624 9.397502009317813 0 0 0
55 1 2.4 8.80458907701834 20.73994640220906 1.7570967797177957 0 0 0
56 1 2.4 14.53690932583402 9.913434141435724 5.824648338804219 0 0 0
57 1 2.4 5.9535217176454065 16.195052944589634 0.2801353010679196 0 0 0
58 1 2.4 14.234421572431613 0.7301046539264372 12.43422241050495 0 0 0
59 1 2.4 2.1338463206737326 10.928903524004147 3.2777746180998926 0 0 0
60 1 2.4 6.580138597147796 2.854885553195431 2.8117141499203817 0 0 0
61 1 2.4 0.23974606976025764 9.172858632700473 15.123457803831265 0 0 0
62 1 2.4 12.246723906808723 7.615819919688351 10.482272531989139 0 0 0
63 1 2.4 10.082002643334764 5.016255811682141 14.996500319663069 0 0 0
64 1 2.4 12.293618703517906 4.9099136218092525 7.153512951508524 0 0 0
65 1 2.4 11.960928141761887 15.35248719453188 8.973593801876339 0 0 0
66 1 2.4 5.7489553692141 5.137704745734289 13.116285578919719 0 0 0
67 1 2.4 14.685918196681197 9.89413693774576 11.024360333705435 0 0 0
68 1 2.4 7.01256969402071 21.112413629474172 0.7853115941082027 0 0 0
69 1 2.4 2.1617273941679684 18.187165564653917 1.6909964493607494 0 0 0
70 1 2.4 5.671525057446782 21.877712520943124 11.579018439815417 0 0 0
71 1 2.4 9.451054039774034 11.458699836972038 10.313417542027494 0 0 0
72 1 2.4 15.631253828419506 14.909444898992595 10.090338387163014 0 0 0
73 1 2.4 0.9412533840014393 2.310533130094267 14.753779745778129 0 0 0
74 1 2.4 0.2010109195570717 17.206817992008535 1.3800636048384947 0 0 0
75 1 2.4 10.466487607498422 8.309886032581074 10.366801730682493 0 0 0
76 1 2.4 8.219923103333924 14.187796169639256 7.963714511875207 0 0 0
77 1 2.4 8.43120987554129 6.384181007842537 4.673826220970644 0 0 0
78 1 2.4 3.376353702683382 1.6870392313364724 14.676321629170456 0 0 0
79 1 2.4 10.212266509711094 19.477482878620616 5.123903969741012 0 0 0
80 1 2.4 5.254611915631633 0.8082035708284022 6.9314611333227525 0 0 0
81 1 2.4 9.282684253483497 15.606905596202925 1.1220833294626693 0 0 0
82 1 2.4 14.678781590300211 21.760319257374263 15.717324110706516 0 0 0
83 1 2.4 11.670380910050143 9.136817114768839 2.5237318686969568 0 0 0
84 1 2.4 11.168473649890498 9.493544562046727 0.6357159674743142 0 0 0
85 1 2.4 15.085856023114104 9.281771788236854 0.2711021958849192 0 0 0
86 1 2.4 3.376693866977536 7.40418052318111 12.35933108576575 0 0 0
87 1 2.4 4.690269469556806 6.305767460451248 4.888592864086508 0 0 0
88 1 2.4 3.7763477832800563 2.020137812245396 11.09132595928746 0 0 0
89 1 2.4 13.046875398421909 11.027111447727522 6.219276576246937 0 0 0
90 1 2.4 2.2319492550385465 12.105849332800728 12.537118334657185 0 0 0
91 1 2.4 0.012934069043511342 19.666209767018916 13.589698923579538 0 0 0
92 1 2.4 5.047812249278108 18.1210439356664 10.779347057388243 0 0 0
93 1 2.4 5.934170622896209 20.489017906968364 2.35790174460726 0 0 0
94 1 2.4 5.087169141490971 20.5367025330058 12.926656966659017 0 0 0
95 1 2.4 1.385519583551088 21.763943246969642 10.720154357789783 0 0 0
96 1 2.4 14.79535200245669 3.792349898560176 7.3454377955134404 0 0 0
97 1 2.4 13.058261603306278 4.67836829202214 3.9993652825989785 0 0 0
98 1 2.4 6.956450564799327 0.5960891596202489 0.8249476088630482 0 0 0
99 1 2.4 0.8359914091074057 12.622718911556065 0.029827995422856666 0 0 0
100 1 2.4 6.126243974210708 19.293252210907923 6.320527196540107 0 0 0
101 1 2.4 6.7291988118116555 3.6985238765043915 12.144994282157636 0 0 0
102 1 2.4 7.6038450255681065 6.93691570031056 1.8014361090464648 0 0 0
103 1 2.4 3.8437871039072156 15.078230591681036 12.932271457513373 0 0 0
104 1 2.4 1.5768684438432041 8.39165693772115 0.6735838890033573 0 0 0
105 1 2.4 0.6519809704613738 17.520732061693046 4.888802198320578 0 0 0
106 1 2.4 15.563820369519176 1.949870162388272 16.403066694259355 0 0 0
107 1 2.4 7.812127217774906 14.540887351454062 10.866547855022034 0 0 0
108 1 2.4 11.145204497135007 13.842271495092527 0.4200430584249991 0 0 0
109 1 2.4 12.490241921059894 14.278186728737968 11.329894988162325 0 0 0
110 1 2.4 3.032207822907805 17.316771496643398 4.012855295001259 0 0 0
111 1 2.4 13.262332190820247 7.403462753196297 0.2957709510073236 0 0 0
112 1 2.4 2.914696649629619 19.47336868293804 1.8821800150941943 0 0 0
113 1 2.4 14.274084103060705 8.282628112821302 13.581884505163124 0 0 0
114 1 2.4 9.764706602786719 10.572295797126067 7.1779312789297105 0 0 0
5251 2 -1.2 15.329360533910798 15.717186037884483 9.249705963510397 0 0 0
5252 2 -1.2 2.8390932018047503 1.0119158564536817 3.634575751273692 0 0 0
5253 2 -1.2 2.251333954975591 8.376686762570127 12.692101655489548 0 0 0
5254 2 -1.2 5.5571291004268675 10.486186477579752 9.860981077346283 0 0 0
5255 2 -1.2 3.4908100569724136 14.093662176752378 7.5872052403399595 0 0 0
5256 2 -1.2 9.870944478473769 16.66207464390025 6.751852606008675 0 0 0
5257 2 -1.2 7.419568169903169 7.35725801370058 14.599468835599403 0 0 0
5258 2 -1.2 11.685722031233594 3.3527893153095456 1.073757933820612 0 0 0
5259 2 -1.2 5.483048473991022 17.618792736383277 5.355489656443211 0 0 0
5260 2 -1.2 9.524927204045635 0.8392769837197774 1.9378085392626787 0 0 0
5261 2 -1.2 3.945875674930048 17.336208829363233 1.1682919051670442 0 0 0
5262 2 -1.2 0.9496029995601974 10.831396061292118 12.108920877659633 0 0 0
5263 2 -1.2 0.8089745566997243 19.88942067263356 8.478305290618469 0 0 0
5264 2 -1.2 16.046110762393774 1.4202686674408862 12.641730240976809 0 0 0
5265 2 -1.2 10.39192705601458 7.376392009729383 6.656725679562338 0 0 0
5266 2 -1.2 13.294440704876656 19.80675543984138 3.140558283358178 0 0 0
5267 2 -1.2 15.59947590348044 8.062363507525285 2.306184710855845 0 0 0
5268 2 -1.2 0.8365390048761342 21.826160996578068 1.9248659078014418 0 0 0
5269 2 -1.2 14.721395761250383 13.01549871021884 10.923615878127482 0 0 0
5270 2 -1.2 12.776586877738263 15.771783205027585 4.1864137836747455 0 0 0
5271 2 -1.2 15.80329078467008 6.48980177565997 0.3918731030739539 0 0 0
5272 2 -1.2 14.03098954486608 8.737287246109496 9.992643318502756 0 0 0
5273 2 -1.2 3.4076997012171857 1.2747335295683575 5.138494667131549 0 0 0
5274 2 -1.2 16.192077857361234 16.183407135792937 2.2657155022700737 0 0 0
5275 2 -1.2 6.474987289201139 15.0270507192108 9.524472321767762 0 0 0
5276 2 -1.2 8.918324530976292 21.030397483186988 6.3567614762844045 0 0 0
5277 2 -1.2 7.674896765785329 14.803381647523672 6.935468774473635 0 0 0
5278 2 -1.2 16.16868671317041 18.481824015150316 11.098357760447898 0 0 0
5279 2 -1.2 0.03973768962912652 8.815720772475476 10.113663303047561 0 0 0
5280 2 -1.2 13.596067797194143 14.524954073102109 6.698190123432764 0 0 0
5281 2 -1.2 12.843601576101445 21.693249593813427 8.87205764490031 0 0 0
5282 2 -1.2 7.41994236904054 13.646422915492503 4.071109842099901 0 0 0
5283 2 -1.2 11.68227576551294 11.33696423071927 7.375532606920903 0 0 0
5284 2 -1.2 5.219566461605726 4.949323699218955 10.463055152128938 0 0 0
5285 2 -1.2 0.6401115874240685 15.748700000978184 11.660380619940199 0 0 0
5286 2 -1.2 3.7494346926441664 11.030763671818626 1.6966439929889066 0 0 0
5287 2 -1.2 15.27394600880611 7.043142957372044 7.712747715927267 0 0 0
5288 2 -1.2 14.262178506213665 5.901950551892017 6.210787598900038 0 0 0
5289 2 -1.2 12.753120605237074 16.807518572075722 12.722126801347777 0 0 0
5290 2 -1.2 14.345270417477662 18.410882634983775 5.086713185074673 0 0 0
5291 2 -1.2 6.090615477848069 13.635179785846258 12.824518524923626 0 0 0
5292 2 -1.2 12.70567281137737 10.21920176117202 4.227128417545644 0 0 0
5293 2 -1.2 13.772753133510554 18.325071833850416 12.786961950089294 0 0 0
5294 2 -1.2 2.2910713683976938 17.18776532360329 10.689680130001173 0 0 0
5295 2 -1.2 3.1377903207076616 12.391614193350616 4.281039179545923 0 0 0
5296 2 -1.2 7.348772350837962 3.792058868426518 2.45409433912922 0 0 0
5297 2 -1.2 8.039612335007684 15.360605502053374 13.6068625507724 0 0 0
5298 2 -1.2 10.847182643024977 13.811748532109123 14.665107255744315 0 0 0
5299 2 -1.2 9.254412838085855 1.7881671850215828 0.7892042717580116 0 0 0
5300 2 -1.2 0.2402822182823497 18.18390684350215 12.827232934101271 0 0 0
5301 2 -1.2 16.101718233449144 13.33715434104492 12.733646813190147 0 0 0
5302 2 -1.2 5.462892419906624 8.383806152046654 0.5365548226235095 0 0 0
5303 2 -1.2 5.1686341626974635 5.702493419600257 15.118472174989854 0 0 0
5304 2 -1.2 7.615336956363099 2.3651079244684734 9.314468439115092 0 0 0
5305 2 -1.2 12.227941859907073 21.473772055775427 10.824597256100752 0 0 0
5306 2 -1.2 2.839792220401642 12.760321414406164 6.020392512149397 0 0 0
5307 2 -1.2 8.957136159835292 14.281814892128367 6.40287420815166 0 0 0
5308 2 -1.2 8.427941364385031 17.355876887016617 2.2015224734786245 0 0 0
5309 2 -1.2 15.239086257968935 14.305376578811307 6.970764993787122 0 0 0
5310 2 -1.2 9.50652432800778 21.069953827560415 12.12461253624545 0 0 0
5311 2 -1.2 1.2391602439207288 0.4083487292611919 8.938552920611151 0 0 0
5312 2 -1.2 10.564383079698992 6.000015246928925 6.745045023571899 0 0 0
5313 2 -1.2 6.403553401222205 0.7378273409214119 10.418296970194115 0 0 0
5314 2 -1.2 8.156847209193458 8.560249469631227 0.2690637573625449 0 0 0
5315 2 -1.2 0.0751459569251075 10.77240327419926 9.20059144440248 0 0 0
5316 2 -1.2 2.047166971210453 4.031460508028594 5.838115303264881 0 0 0
5317 2 -1.2 12.372594700477848 14.148236879057578 2.146346529862818 0 0 0
5318 2 -1.2 10.76048343734568 6.580582093558372 10.30872972573665 0 0 0
5319 2 -1.2 11.392584806263415 19.51266542339914 3.2868681205520107 0 0 0
5320 2 -1.2 14.192106932653486 14.50914560963506 4.627596162497782 0 0 0
5321 2 -1.2 5.470787122497839 9.258946837754333 12.085536730713402 0 0 0
5322 2 -1.2 0.6710294650715991 8.140966563624298 5.276490918438341 0 0 0
5323 2 -1.2 8.632035337426982 20.47401191697331 13.774479427406813 0 0 0
5324 2 -1.2 15.799260525232947 4.658794298205057 4.547065611030796 0 0 0
5325 2 -1.2 11.65887059614326 13.399659929061402 8.77605848736374 0 0 0
5326 2 -1.2 2.5652662543236424 12.191811311244896 7.377706632402098 0 0 0
5327 2 -1.2 15.179511533367442 1.616423437871185 14.136812741741997 0 0 0
5328 2 -1.2 14.70139815792841 6.443594089956003 14.64605406561469 0 0 0
5329 2 -1.2 3.125768317945092 8.054502410121918 1.9958464172962969 0 0 0
5330 2 -1.2 8.576051058612356 2.2241182335110596 12.300996285181975 0 0 0
5331 2 -1.2 6.8162222845364235 16.379646548331074 5.183377909468635 0 0 0
5332 2 -1.2 1.6709396763564306 7.713352609308517 2.0751149174940218 0 0 0
5333 2 -1.2 16.1803104560949 16.125382699834457 15.632463584492337 0 0 0
5334 2 -1.2 8.61121552717568 0.08327543548621448 15.593423685873331 0 0 0
5335 2 -1.2 16.35218948330743 5.051426234041304 12.955722968283647 0 0 0
5336 2 -1.2 0.7892401172917153 17.74051195435266 8.017936712639207 0 0 0
5337 2 -1.2 7.25074927099258 3.957227967729876 10.417505268796038 0 0 0
5338 2 -1.2 3.510675387819846 18.44246331741846 8.618739805458844 0 0 0
5339 2 -1.2 13.6710007064352 21.716664921463632 6.980092167381038 0 0 0
5340 2 -1.2 13.643525104851317 21.273169278129934 0.4774203720173172 0 0 0
5341 2 -1.2 11.207629003045284 8.52193621031145 15.393743194168646 0 0 0
5342 2 -1.2 0.10206530825352803 1.867000873985135 7.635757033672198 0 0 0
5343 2 -1.2 7.160448878142173 2.1064716267223997 12.181362460928945 0 0 0
5344 2 -1.2 14.788128360173664 14.195719812588589 9.325255796483056 0 0 0
5345 2 -1.2 11.964732095577844 13.379976096918012 7.477706065568928 0 0 0
5346 2 -1.2 16.25785551653561 1.313955878271155 5.292880490792956 0 0 0
5347 2 -1.2 6.803804139522958 5.3845719542822215 10.162998051222136 0 0 0
5348 2 -1.2 9.219394206830886 6.380097624587904 1.9499667427774545 0 0 0
5349 2 -1.2 4.361136730469223 10.6391037391874 9.624444502508284 0 0 0
5350 2 -1.2 4.509852975319939 5.70164141300207 0.7987972792671166 0 0 0
5351 2 -1.2 8.348879528420147 6.674857473751561 13.06153545446499 0 0 0
5352 2 -1.2 1.9528162478792135 0.012362658091431632 10.062505895415228 0 0 0
5353 2 -1.2 6.584079549647362 3.18491133096901 13.487679066726194 0 0 0
5354 2 -1.2 12.212268032019102 21.665998272332544 12.198037692725096 0 0 0
5355 2 -1.2 6.31356773093013 4.176613037794373 6.910856426963343 0 0 0
5356 2 -1.2 5.302044732932734 7.144809361304442 2.875363664669115 0 0 0
5357 2 -1.2 16.388448867201188 21.312825394618148 7.922141365196237 0 0 0
5358 2 -1.2 12.960856091675554 15.223006375066895 7.673036173896357 0 0 0
5359 2 -1.2 8.459308416031952 17.29741085740706 8.146406061984495 0 0 0
5360 2 -1.2 1.636108436222005 15.4547656118488 14.422318704241947 0 0 0
5361 2 -1.2 3.7220517738614696 12.14498786801676 11.282850886212158 0 0 0
5362 2 -1.2 9.894088355999312 10.207846921129642 11.103020472589282 0 0 0
5363 2 -1.2 9.015859553011325 12.66244076531585 8.579395311872364 0 0 0
5364 2 -1.2 8.110478310656834 20.10492635367504 5.676328021376715 0 0 0
5365 2 -1.2 6.658969953696485 9.662237418485638 1.917350191936003 0 0 0
5366 2 -1.2 0.6676973035412803 18.042890605980826 15.367592680434699 0 0 0
5367 2 -1.2 14.298272012445036 19.37544384072398 3.698428984047019 0 0 0
5368 2 -1.2 5.478176857270938 1.647093404370378 2.3624366342761474 0 0 0
5369 2 -1.2 4.898760443583628 17.418735160712313 4.1715223582150625 0 0 0
5370 2 -1.2 6.631677323920771 12.293948955048887 10.460451103001976 0 0 0
5371 2 -1.2 8.615880847938952 12.587758621362372 5.602296651860042 0 0 0
5372 2 -1.2 6.024342732929081 20.18372493365695 11.932804128845731 0 0 0
5373 2 -1.2 7.898374211177554 14.171722056395035 1.4283447459774687 0 0 0
5374 2 -1.2 9.972633654140761 12.20741513599727 6.008937715854217 0 0 0
5375 2 -1.2 3.231344524362749 3.0236058461986657 4.554474710985201 0 0 0
5376 2 -1.2 15.545269047551074 19.68561625662114 10.226755256020327 0 0 0
5377 2 -1.2 2.1536260273439103 13.838619117553076 4.940096635326188 0 0 0
5378 2 -1.2 11.886716163541577 20.2774640118797 5.671982640415552 0 0 0
5379 2 -1.2 15.25884567876773 16.874147531985887 12.160487010307264 0 0 0
5380 2 -1.2 8.032158827101847 21.900623893534306 1.2170802851596612 0 0 0
5381 2 -1.2 8.795679773961162 2.812415685070153 13.981832275048875 0 0 0
5382 2 -1.2 16.094297870386114 20.43423810560346 4.351660558531017 0 0 0
5383 2 -1.2 3.160782284370333 3.3841701773076363 1.2474024763267222 0 0 0
5384 2 -1.2 12.41224136454793 21.434091080655104 2.962077233113627 0 0 0
5385 2 -1.2 5.157745560110589 20.41443838926892 1.105642536050049 0 0 0
5386 2 -1.2 0.518552385390245 15.775640773695754 3.1150075071410446 0 0 0
5387 2 -1.2 9.838928616528877 5.815985995515632 11.326871994360198 0 0 0
5388 2 -1.2 8.779964607088687 2.3098575890943644 3.399962160422286 0 0 0
5389 2 -1.2 3.1617186261796646 19.121266966750067 15.609295462128074 0 0 0
5390 2 -1.2 5.748669556324217 0.33404750548265477 12.363579640820376 0 0 0
5391 2 -1.2 2.078634592903561 5.66327524469248 15.034235324234517 0 0 0
5392 2 -1.2 7.83924862988578 9.031520521927872 12.254093816055475 0 0 0
5393 2 -1.2 6.526171120638712 18.5013882189629 10.386116826449639 0 0 0
5394 2 -1.2 2.1297707939744317 8.337089171281205 6.231013686809702 0 0 0
5395 2 -1.2 4.35680387089312 3.722295726042472 16.24509217412223 0 0 0
5396 2 -1.2 11.992091506073882 11.87064812685187 13.84422289771286 0 0 0
5397 2 -1.2 10.816234137087516 20.90471230063759 2.9439106061497844 0 0 0
5398 2 -1.2 6.3532172184497835 11.50992095635777 14.414453586491906 0 0 0
5399 2 -1.2 5.074493847738718 5.21972908616317 7.682554636198812 0 0 0
5400 2 -1.2 13.458395720863816 7.365068074183958 14.052029614873708 0 0 0
5401 2 -1.2 11.941184157866733 13.043164280855482 14.559921391230063 0 0 0
5402 2 -1.2 12.63478090295769 5.039028835244263 2.309330033679667 0 0 0
5403 2 -1.2 5.012288251239322 14.219274839613298 9.78121770623163 0 0 0
5404 2 -1.2 14.945391156190825 21.089017175970564 2.99449485351889 0 0 0
5405 2 -1.2 9.286001285006867 5.450691527061898 1.0400887580129763 0 0 0
5406 2 -1.2 6.129474430177077 7.681962755237332 1.750340602477042 0 0 0
5407 2 -1.2 8.309747069758634 8.031253573927483 6.686033791987814 0 0 0
5408 2 -1.2 4.925820016010929 10.87002876937929 2.3532168745246658 0 0 0
5409 2 -1.2 1.2600094548751872 21.29322282871898 7.989630709984302 0 0 0
5410 2 -1.2 15.756465039716746 10.356260934117419 1.0859472259703553 0 0 0
5411 2 -1.2 1.240061292610404 15.552274056630244 5.607678085365986 0 0 0
5412 2 -1.2 9.706291886304172 17.379599111359493 5.467569709640909 0 0 0
5413 2 -1.2 0.8755314572664536 18.11667949642062 3.331779536005483 0 0 0
5414 2 -1.2 9.376455218272616 9.882001628724257 4.782910256585503 0 0 0
5415 2 -1.2 12.835079269773722 10.26997290862696 0.765486221210156 0 0 0
5416 2 -1.2 7.7651299789497115 15.525049005506256 9.375184021481914 0 0 0
5417 2 -1.2 11.505460734654209 5.357070297169132 9.281587128496874 0 0 0
5418 2 -1.2 14.674419759676319 14.356594844057797 11.023831520014296 0 0 0
5419 2 -1.2 7.992041137987859 6.698251778978321 10.81624610605853 0 0 0
5420 2 -1.2 6.443157836307375 7.3139389931163565 11.497881583242394 0 0 0
5421 2 -1.2 13.133769207294025 21.52897374802375 15.921558519675031 0 0 0
5422 2 -1.2 5.694926022331773 19.744352048423554 8.815764842840546 0 0 0
5423 2 -1.2 10.784428008342394 13.583609540782946 2.8557272173750747 0 0 0
5424 2 -1.2 12.81584319990494 16.49716103609354 3.082487260481752 0 0 0
5425 2 -1.2 11.556365075273767 4.1340056185714396 15.769153253819761 0 0 0
5426 2 -1.2 13.87883884981738 21.85750797718129 1.529065846717108 0 0 0
5427 2 -1.2 12.66302899420669 18.465758280185806 4.703801741633667 0 0 0
5428 2 -1.2 8.047805617391196 21.25397675690184 7.43653050355531 0 0 0
5429 2 -1.2 4.38458597020397 9.317098666529938 0.8598797259403538 0 0 0
5430 2 -1.2 16.313456696208778 13.125102291244717 7.675241472150535 0 0 0
5431 2 -1.2 8.733390394664667 10.403823967685216 9.611097810861478 0 0 0
5432 2 -1.2 13.286181623842234 12.807506259179586 8.189324029970738 0 0 0
5433 2 -1.2 11.901391196143258 3.298485418645958 11.06604706285036 0 0 0
5434 2 -1.2 12.5842365828483 12.312958228261788 0.4214915801247257 0 0 0
5435 2 -1.2 14.611620809111319 13.383638816876005 3.1314775171188067 0 0 0
5436 2 -1.2 11.419967326080409 18.391735810673218 12.81385140967985 0 0 0
5437 2 -1.2 6.92152854462321 6.811762001453524 7.321231656465565 0 0 0
5438 2 -1.2 1.5807277311328505 7.349135532384066 9.896051113797272 0 0 0
5439 2 -1.2 9.784107844455496 7.121150112162901 0.6677406373542851 0 0 0
5440 2 -1.2 3.6520133144544307 21.308732497566044 5.038383492878919 0 0 0
5441 2 -1.2 15.172217642431464 10.83912424173789 10.185323864923701 0 0 0
5442 2 -1.2 1.4554740146436744 11.187934736414347 7.048211356251467 0 0 0
5443 2 -1.2 7.133800823490072 15.571557265831023 0.1727607107208937 0 0 0
5444 2 -1.2 13.242369849928263 1.424213793735472 13.041904991656457 0 0 0
5445 2 -1.2 3.8041973691736244 8.749187748471439 12.287697868384928 0 0 0
5446 2 -1.2 14.285953700925697 10.05827078243574 1.5882469763102551 0 0 0
5447 2 -1.2 5.215390825205277 0.6749655992930899 8.390011541793076 0 0 0
5448 2 -1.2 8.544727616985464 3.015537869734769 0.7671200471329159 0 0 0
5449 2 -1.2 10.439450653357369 15.238737960912427 8.451547950054108 0 0 0
5450 2 -1.2 7.336817589140756 0.5850676707654484 13.303473073507593 0 0 0
5451 2 -1.2 10.616131079326697 18.956327518241835 11.505625446109166 0 0 0
5452 2 -1.2 3.517658269647474 3.992632429506868 12.31022841287017 0 0 0
5453 2 -1.2 14.054833576506276 14.05054972833199 7.957476345562008 0 0 0
5454 2 -1.2 2.2207513005854618 21.61851748707838 5.055234515100628 0 0 0
5455 2 -1.2 10.906164964940611 16.544189731829736 2.6270219095819174 0 0 0
5456 2 -1.2 9.56538837193806 21.814496927428156 3.603544352539543 0 0 0
5457 2 -1.2 3.0204980261506873 18.22690604704295 10.553655137530729 0 0 0
5458 2 -1.2 13.991923345200512 11.207298291169264 2.9636617100482052 0 0 0
5459 2 -1.2 8.172794758241622 12.968454792406689 11.123243798428712 0 0 0
5460 2 -1.2 3.533954576097185 14.262403400110053 9.681742268477862 0 0 0
5461 2 -1.2 16.160712002611415 16.261989414985855 4.886824249136329 0 0 0
5462 2 -1.2 4.318331424258858 16.171513968261948 0.09393745624489219 0 0 0
5463 2 -1.2 15.796230718324244 19.642392466080654 8.725699348718706 0 0 0
5464 2 -1.2 11.788470921180371 16.70874770774898 0.3192821224946512 0 0 0
5465 2 -1.2 4.32977692158425 10.819298868839843 6.508095979578954 0 0 0
5466 2 -1.2 14.273922644710693 5.568997624153434 12.243776102696303 0 0 0
5467 2 -1.2 1.6285509210270248 20.246733494663047 16.428682839472028 0 0 0
5468 2 -1.2 4.9375072251714665 9.580264483252778 8.215048264198568 0 0 0
5469 2 -1.2 5.156612129245225 1.36486583510019 4.164207444855637 0 0 0
5470 2 -1.2 0.47156192898195803 16.87379450872031 6.22722498575937 0 0 0
5471 2 -1.2 1.63607391034408 14.874489181559623 15.739661433034055 0 0 0
5472 2 -1.2 4.0233113573894865 0.6864662766438232 3.965207128290914 0 0 0
5473 2 -1.2 2.8985151532326348 11.133210268523126 9.971959862452008 0 0 0
5474 2 -1.2 0.8829982231094119 11.799487254170733 4.143567629514585 0 0 0
5475 2 -1.2 15.230992133906826 10.078559231753353 13.048400245329102 0 0 0
5476 2 -1.2 2.964893562682908 6.360568898032991 3.2584739464773014 0 0 0
5477 2 -1.2 4.683049325896076 16.767938719415632 6.559171967518723 0 0 0
5478 2 -1.2 6.462969736440614 10.764730120330483 12.049020136701518 0 0 0
5479 2 -1.2 8.745498942294567 16.195495336172115 7.715410627839884 0 0 0
5480 2 -1.2 12.07781100544117 2.6358905795169862 12.874712952113704 0 0 0
5481 2 -1.2 14.317748443803518 17.188011270612797 14.823311518745573 0 0 0
5482 2 -1.2 12.450788448457848 10.239301530402983 12.51613547019307 0 0 0
5483 2 -1.2 10.792408304421196 15.89731997233641 5.104849705472964 0 0 0
5484 2 -1.2 16.093228857136545 2.4673324200364886 13.85693050768685 0 0 0
5485 2 -1.2 7.926152903935116 19.709271055760638 12.359587098986774 0 0 0
5486 2 -1.2 3.3766789211086032 7.152985304024819 8.477307201194572 0 0 0
5487 2 -1.2 7.690807855506403 18.59881505991377 0.19996062700575187 0 0 0
5488 2 -1.2 12.093398012254786 0.9844625662593561 3.566067632224645 0 0 0
5489 2 -1.2 2.0980995463257384 3.2829329990896055 13.298783108939901 0 0 0
5490 2 -1.2 12.54944944376861 20.79557765775811 14.073728438632152 0 0 0
5491 2 -1.2 0.2863314532238913 1.2666439168876282 0.9875001069647131 0 0 0
5492 2 -1.2 3.244143497482148 20.419258416654962 16.21027993089308 0 0 0
5493 2 -1.2 15.188029359003451 12.964393137437897 8.764571620364176 0 0 0
5494 2 -1.2 4.57288219047345 10.544654379259137 3.947561366393869 0 0 0
17501 3 1.2 5.878730226400331 11.380154354692571 8.310754519531656 0 0 0
17502 3 1.2 5.262585429293527 3.0079219214095043 4.577002309262196 0 0 0
17503 3 1.2 0.7698834063330428 21.940085284071017 5.389042211507633 0 0 0
17504 3 1.2 3.14153946277431 9.49788202507322 7.629894171324465 0 0 0
17505 3 1.2 15.673738028620331 3.9802059675930304 1.1753716742805476 0 0 0
17506 3 1.2 2.083420769584406 20.198983837216435 4.76694472339115 0 0 0
17507 3 1.2 1.8593406404671182 10.70133806121723 1.1076887390587478 0 0 0
17508 3 1.2 2.2785859823188637 5.06257014398681 2.5347287751266743 0 0 0
17509 3 1.2 9.85128869668809 15.835164584135935 14.948246338881397 0 0 0
17510 3 1.2 15.987799623545005 9.968401272541838 6.979340485311685 0 0 0
17511 3 1.2 16.466324578138575 12.058641470775356 9.981335863309727 0 0 0
17512 3 1.2 3.7765538030298447 5.482711746939825 11.959421186931875 0 0 0
17513 3 1.2 4.917809429228561 8.047222482985456 11.453236799635512 0 0 0
18201 4 0.6 3.793153660998275 20.85427309264544 11.984459353603244 0 0 0
18202 4 0.6 13.59216609678157 14.8546381214084 11.630707883554162 0 0 0
18203 4 0.6 6.678036923487609 0.5929842857805205 14.546895866972134 0 0 0
18204 4 0.6 4.7964947624794565 12.184067785964489 9.043403009453954 0 0 0
18205 4 0.6 2.365281014203138 12.22358760963149 14.197450556486896 0 0 0
18206 4 0.6 6.69017600733843 6.897877919278733 4.749079131393147 0 0 0
18207 4 0.6 16.219677598657302 18.713318921810824 13.405043940499564 0 0 0
18208 4 0.6 4.729425006849609 5.337253916344181 5.755489015662999 0 0 0
18209 4 0.6 2.6508278246528842 0.3027404214494817 13.429921354683312 0 0 0
18210 4 0.6 2.564912095540303 6.239464639656379 10.931652765956411 0 0 0
18211 4 0.6 8.071004061148694 15.716843694623812 3.4959427813986195 0 0 0
18212 4 0.6 6.624152002188852 17.626992371528328 11.355631774464886 0 0 0
18213 4 0.6 8.478989209898081 18.54469895333642 13.348437735537244 0 0 0
18214 4 0.6 5.984830428231051 15.15604869810921 2.709928547312552 0 0 0
18215 4 0.6 3.655224190411807 9.368361830762566 5.667563512179139 0 0 0
18216 4 0.6 11.10909791710453 0.14904686465772765 0.6192647702638127 0 0 0
18217 4 0.6 10.851348673558944 17.924660834096755 5.446703097643976 0 0 0
18218 4 0.6 3.2794248016163716 20.242071058728683 3.9726849731044775 0 0 0
18219 4 0.6 6.242885586399887 2.521941801667959 8.998927233855724 0 0 0
18220 4 0.6 12.63879953101017 6.674547630850643 7.854005818732089 0 0 0
18221 4 0.6 11.859079379814704 17.124980091320452 9.947287271120945 0 0 0
18222 4 0.6 12.706058703278732 16.704886947355213 1.3370450668060634 0 0 0
18223 4 0.6 6.737431284902822 10.250573354889992 4.24500097609857 0 0 0
18224 4 0.6 1.137518882758453 5.66662661795576 5.4552028777544574 0 0 0
18225 4 0.6 4.505718923421346 2.126194035780056 14.12807708083353 0 0 0
18226 4 0.6 1.7809831937912493 11.858989428394084 15.61316656494039 0 0 0
18227 4 0.6 6.459487256910226 18.140259535525782 4.208119481919104 0 0 0
18228 4 0.6 10.901755810846712 8.345099758063572 9.053819973203536 0 0 0
18229 4 0.6 16.223710436026654 20.58765370606066 12.490705028169131 0 0 0
18230 4 0.6 0.8746901613628411 3.9770192444053674 13.521677941650763 0 0 0
18231 4 0.6 8.96535933395667 20.677576585289415 7.996589930076924 0 0 0
18232 4 0.6 2.6436531630820075 11.529329164581473 11.08039479012931 0 0 0
18233 4 0.6 1.663846956202497 20.317130746993485 13.295170873487852 0 0 0
18234 4 0.6 12.744857780063 9.745341636307012 14.633118584846391 0 0 0
18235 4 0.6 7.423351316123364 5.035033654099102 1.0678834093985572 0 0 0
18236 4 0.6 6.5339211214393345 16.944525910169723 8.709757262431673 0 0 0
18237 4 0.6 4.581107942527048 16.98374337921511 8.782130683945542 0 0 0
18238 4 0.6 7.235485856051715 11.04726458629334 15.405262039803587 0 0 0