LAMMPS data file via write_data, version 29 Aug 2024, timestep = 0, units = metal

20300 atoms
5 atom types

0 66.9258440028226 xlo xhi
0 66.9258440028226 ylo yhi
0 66.9258440028226 zlo zhi

Masses

1 28.086
2 15.9994
3 40.078
4 22.99
5 39.1

Atoms # charge

1 1 2.4 6.67414826387009 4.6953221339231686 8.709025518847385 0 0 0
2 1 2.4 5.771061094978515 18.675863213949523 3.0246636116219574 0 0 0
3 1 2.4 14.854150703967687 20.312751056598703 7.676749856349028 0 0 0
4 1 2.4 9.737180637166173 19.10638195062433 10.761918600270079 0 0 0
5 1 2.4 7.868656773388402 3.0466407614130486 6.620614909821906 0 0 0
6 1 2.4 14.88985172976383 18.00729558696445 9.950349347758474 0 0 0
7 1 2.4 14.004942973947193 2.8832052034083726 3.7187956409532426 0 0 0
8 1 2.4 6.997728130354295 22.108773905334402 9.877123284233305 0 0 0
9 1 2.4 14.62240139888311 7.001132663835429 12.40292411993956 0 0 0
10 1 2.4 0.817448019784693 19.050847942700337 14.363663461249121 0 0 0
11 1 2.4 6.415376512455565 5.698356293474763 1.3914563911928612 0 0 0
12 1 2.4 11.369999918479966 22.30400183425875 11.70656857742868 0 0 0
13 1 2.4 2.501271633680817 9.442313500896617 15.786878877052738 0 0 0
14 1 2.4 10.887117348256654 4.523768432595495 3.217259426005788 0 0 0
15 1 2.4 5.380391010468622 11.416465132793906 0.134730774807573 0 0 0
16 1 2.4 1.0963144127753395 21.149234738915656 12.030757964576214 0 0 0
17 1 2.4 5.427608074971888 1.8835402053186432 0.7360174553458704 0 0 0
18 1 2.4 6.6232711458980305 19.639572414210043 4.030943707116304 0 0 0
19 1 2.4 9.425629282944044 3.0786037594741313 8.415971299850924 0 0 0
20 1 2.4 9.457863102897159 9.4256636888553 3.6568639099280755 0 0 0
21 1 2.4 12.125614843751377 6.013690334554078 14.069008588259956 0 0 0
22 1 2.4 5.3240975793150564 2.2545837743329877 12.761789616938104 0 0 0
23 1 2.4 2.2180180506983795 0.5342685154716863 11.387843154403146 0 0 0
24 1 2.4 5.917647479878201 6.097006118543268 8.914666035301513 0 0 0
25 1 2.4 6.650292844273387 5.312348989059218 5.573559352928228 0 0 0
26 1 2.4 15.056786063528293 12.787195047768643 15.50207478420007 0 0 0
27 1 2.4 15.526094816136672 3.209807803719022 5.009490830582612 0 0 0
28 1 2.4 1.8006340511279393 12.775008031462507 11.45242373545284 0 0 0
29 1 2.4 1.2822116081583919 0.00872940921370873 12.863492649157415 0 0 0
30 1 2.4 14.474840803126707 3.20642789040989 15.12913184682765 0 0 0
31 1 2.4 1.1230088810164818 1.3222544480343812 3.7502991767411142 0 0 0
32 1 2.4 4.811100019840053 13.738478042077304 8.438643455282309 0 0 0
33 1 2.4 6.320308149119377 14.104629769903351 5.173084767972248 0 0 0
34 1 2.4 8.780830281658178 7.9285176051356165 5.239979894508394 0 0 0
35 1 2.4 1.0874554827580316 6.108885943665313 7.801354853048265 0 0 0
36 1 2.4 4.1542097404358875 16.147812561993838 11.988297984775498 0 0 0
37 1 2.4 4.062278267495822 10.349958923228241 11.49105936109261 0 0 0
38 1 2.4 16.00865109116901 15.505997930696772 0.07067422944424451 0 0 0
39 1 2.4 8.975956270604524 8.044657688063914 16.356877588549672 0 0 0
40 1 2.4 10.321460326180468 0.9960467989133406 9.097548630864315 0 0 0
41 1 2.4 4.473113114324883 21.88929728852158 2.0550446663023116 0 0 0
42 1 2.4 10.791912545536885 10.636905189198568 15.53618332117448 0 0 0
43 1 2.4 4.636385774052269 22.053285210992804 14.240453524523973 0 0 0
44 1 2.4 4.456262476475482 6.384002964942914 13.809895270914861 0 0 0
45 1 2.4 4.082816477310065 20.906431257084815 13.709123005856355 0 0 0
46 1 2.4 10.779984477343625 10.9393950735327 13.119525110371274 0 0 0
47 1 2.4 15.22406576532584 13.371695040575197 1.0943854690460861 0 0 0
48 1 2.4 2.5534273800287357 15.98797033367535 2.553726748854379 0 0 0
49 1 2.4 16.259134196778223 9.047381726942598 3.827110311287178 0 0 0
50 1 2.4 13.578812144053995 1.9676554904376542 9.018890391287327 0 0 0
51 1 2.4 7.558658983184422 13.129613023278365 14.898404933341457 0 0 0
52 1 2.4 7.375794213872741 18.310259331697697 15.49786286490112 0 0 0
53 1 2.4 8.756509571975396 0.7254139835711322 11.529213366304367 0 0 0
54 1 2.4 1.720893147278323 11.086517087414931 9.542984324613515 0 0 0
55 1 2.4 8.940892533285956 21.061020600300257 1.7842983176859184 0 0 0
56 1 2.4 14.761954579760978 10.066903579377586 5.914819463564002 0 0 0
57 1 2.4 6.045687925515062 16.445767846951906 0.2844720633431509 0 0 0
58 1 2.4 14.45478402675183 0.7414073719632164 12.626716060773749 0 0 0
59 1 2.4 2.166880301715612 11.0980933987963 3.3285177028032367 0 0 0
60 1 2.4 6.682005433369858 2.8990819108840284 2.8552421730135946 0 0 0
61 1 2.4 0.2434575681219695 9.314863253762779 15.35758338894917 0 0 0
62 1 2.4 12.436314900988153 7.7337200929144725 10.644548132037137 0 0 0
63 1 2.4 10.238081682840733 5.093912247283373 15.22866048155227 0 0 0
64 1 2.4 12.483935673982716 4.985923778646087 7.264256170892927 0 0 0
65 1 2.4 12.14609474427218 15.590158373574305 9.112513612856501 0 0 0
66 1 2.4 5.837954694440702 5.217241326942149 13.319338219100999 0 0 0
67 1 2.4 14.913270250384194 10.047307636526007 11.195027971170296 0 0 0
68 1 2.4 7.121130977034755 21.43925397632922 0.7974689683578852 0 0 0
69 1 2.4 2.195193000882378 18.468720274872506 1.7171746910217662 0 0 0
70 1 2.4 5.759325687422369 22.216400426278472 11.758272715026608 0 0 0
71 1 2.4 9.597365391697963 11.63609146518433 10.47307910540229 0 0 0
72 1 2.4 15.873240581460738 15.14025735974317 10.246546471952573 0 0 0
73 1 2.4 0.9558248862419996 2.3463023918619417 14.982182361138085 0 0 0
74 1 2.4 0.20412276076209462 17.473195984571568 1.401428308808567 0 0 0
75 1 2.4 10.628518841824615 8.438531012775238 10.527289732333973 0 0 0
76 1 2.4 8.347175371377064 14.40743681814947 8.087000425982257 0 0 0
77 1 2.4 8.56173306481239 6.483014233242955 4.746181519138431 0 0 0
78 1 2.4 3.428622885859567 1.7131562114792973 14.903525118833887 0 0 0
79 1 2.4 10.370362158403312 19.779012934427417 5.203226901742691 0 0 0
80 1 2.4 5.335958331594993 0.8207153347628805 7.03876677827586 0 0 0
81 1 2.4 9.426389080150916 15.84851541533207 1.139454252135852 0 0 0
82 1 2.4 14.906023162513701 22.097189802759363 15.960643314002386 0 0 0
83 1 2.4 11.851049563644835 9.278263778677182 2.5628016507602682 0 0 0
84 1 2.4 11.341372299264988 9.640513707877188 0.6455574584074271 0 0 0
85 1 2.4 15.319399496718487 9.425462489069922 0.27529911705609644 0 0 0
86 1 2.4 3.4289683162221976 7.5188043162179925 12.55066534673005 0 0 0
87 1 2.4 4.762879324932766 6.403386769173199 4.964272955210744 0 0 0
88 1 2.4 3.83480925722586 2.051411476869298 11.263030288656749 0 0 0
89 1 2.4 13.248853502651624 11.197821675067564 6.315556923394467 0 0 0
90 1 2.4 2.266501963292673 12.29325945389573 12.73120491220233 0 0 0
91 1 2.4 0.01313430079752201 19.970661495484634 13.800080454928354 0 0 0
92 1 2.4 5.125957208701883 18.40157501985472 10.946221655098341 0 0 0
93 1 2.4 6.026037257319132 20.8062074920608 2.394404317812896 0 0 0
94 1 2.4 5.165923383232141 20.85463032169671 13.126773974633926 0 0 0
95 1 2.4 1.4069687512876514 22.10086989517828 10.886112595920745 0 0 0
96 1 2.4 15.024398196093902 3.8510591005488437 7.459152194966856 0 0 0
97 1 2.4 13.260415976873032 4.7507939057921105 4.061279280643229 0 0 0
98 1 2.4 7.064143070042065 0.6053171896837953 0.8377185865139231 0 0 0
99 1 2.4 0.8489333553441472 12.818130667867392 0.030289761308135984 0 0 0
100 1 2.4 6.221084087737773 19.591930199850495 6.418375000087303 0 0 0
101 1 2.4 6.833373242661127 3.7557805619721663 12.333010404492002 0 0 0
102 1 2.4 7.721559815985018 7.0443057871753085 1.829324062221841 0 0 0
103 1 2.4 3.903292603009607 15.311656016316777 13.132475383174267 0 0 0
104 1 2.4 1.6012798748702557 8.52156780970143 0.6840116115641961 0 0 0
105 1 2.4 0.6620742591903799 17.791969744162643 4.964485530138884 0 0 0
106 1 2.4 15.804763188148957 1.9800560166151702 16.657001848331635 0 0 0
107 1 2.4 7.933066415648934 14.765994189020686 11.034772404445134 0 0 0
108 1 2.4 11.317742917779087 14.056563091312567 0.426545726538607 0 0 0
109 1 2.4 12.683602806907807 14.499226709518133 11.505292594175145 0 0 0
110 1 2.4 3.0791492988550275 17.58485167457583 4.074978131334207 0 0 0
111 1 2.4 13.4676457721771 7.518075434467612 0.3003497680915969 0 0 0
112 1 2.4 2.9598189402715684 19.774835047062425 1.9113179611279063 0 0 0
113 1 2.4 14.495060571273198 8.410851114358492 13.792145061844122 0 0 0
114 1 2.4 16.654069648175657 21.068957084151606 1.321094401626206 0 0 0
115 1 2.4 9.915873596243927 10.735965043382347 7.289052517366981 0 0 0
5251 2 -1.2 15.566673690137279 15.960503103681067 9.392900254721157 0 0 0
5252 2 -1.2 2.8830450787960302 1.0275812813224763 3.6908424586272663 0 0 0
5253 2 -1.2 2.286186756916886 8.506365881927296 12.888587523008194 0 0 0
5254 2 -1.2 5.643158771623066 10.6485226692473 10.013638491709909 0 0 0
5255 2 -1.2 3.544851133935454 14.311845541058808 7.704662430973587 0 0 0
5256 2 -1.2 10.02375613581205 16.92001948864952 6.856377739249776 0 0 0
5257 2 -1.2 7.534430178422192 7.471155401431888 14.825482570545613 0 0 0
5258 2 -1.2 11.86662818005061 3.4046936992411787 1.0903807331692543 0 0 0
5259 2 -1.2 5.567931306267498 17.891548491844958 5.438397756275381 0 0 0
5260 2 -1.2 9.672382183176646 0.8522697937925905 1.9678076680324508 0 0 0
5261 2 -1.2 4.006961602710497 17.60458991578863 1.186378180768412 0 0 0
5262 2 -1.2 0.9643037618319993 10.99907642734249 12.296378549205508 0 0 0
5263 2 -1.2 0.8214982562325678 20.19732791931208 8.60955756193908 0 0 0
5264 2 -1.2 16.294519897384085 1.4422557842168515 12.837436310842763 0 0 0
5265 2 -1.2 10.552804021722492 7.490585610011682 6.75977815703889 0 0 0
5266 2 -1.2 13.500251356727453 20.113382949686734 3.189177128018283 0 0 0
5267 2 -1.2 15.840970703863313 8.187176602395324 2.341886654936537 0 0 0
5268 2 -1.2 0.8494894284188877 22.164050835032004 1.9546646722627912 0 0 0
5269 2 -1.2 14.949297041570142 13.216991073318457 11.092723895106372 0 0 0
5270 2 -1.2 12.974380657266805 16.015945487167482 4.25122347133759 0 0 0
5271 2 -1.2 16.047940834264686 6.590270111521672 0.3979396733477121 0 0 0
5272 2 -1.2 14.248202676914676 8.872548805692805 10.147338990231102 0 0 0
5273 2 -1.2 3.460454150418047 1.294467623275684 5.21804347707782 0 0 0
5274 2 -1.2 16.44274670252897 16.43394174990142 2.300790944312521 0 0 0
5275 2 -1.2 6.575226282649528 15.259683830491765 9.671920258886233 0 0 0
5276 2 -1.2 9.056388720804444 21.355968141688507 6.455170221122706 0 0 0
5277 2 -1.2 7.793711505067624 15.032552147743015 7.042836461543139 0 0 0
5278 2 -1.2 16.41899344106369 18.7679403198817 11.270170948821686 0 0 0
5279 2 -1.2 0.040352867054575886 8.95219655803088 10.27023247983408 0 0 0
5280 2 -1.2 13.806547924795279 14.749814248287326 6.801884510141232 0 0 0
5281 2 -1.2 13.042432807227982 22.029081836686725 9.009405579099978 0 0 0
5282 2 -1.2 7.534810170519952 13.857682588465352 4.134134514514396 0 0 0
5283 2 -1.2 11.863128562841906 11.512471275365204 7.489712902826121 0 0 0
5284 2 -1.2 5.300370340436641 5.025943961730879 10.625033248764518 0 0 0
5285 2 -1.2 0.6500211267563001 15.99250493305141 11.840894459483518 0 0 0
5286 2 -1.2 3.807479526217498 11.201530439079194 1.722909664024447 0 0 0
5287 2 -1.2 15.510401295206625 7.1521775437313915 7.832148424103992 0 0 0
5288 2 -1.2 14.482970664404986 5.993318388812791 6.3069365285626136 0 0 0
5289 2 -1.2 12.950551104433092 17.06771502788032 12.91907748682892 0 0 0
5290 2 -1.2 14.567348917892806 18.695900699328867 5.1654603681746165 0 0 0
5291 2 -1.2 11.33737657000804 9.410136089185688 10.387872274049865 0 0 0
5292 2 -1.2 6.184904028189917 13.846265404423535 13.02305433217417 0 0 0
5293 2 -1.2 12.902368773363444 10.377404774187086 4.292568406664778 0 0 0
5294 2 -1.2 13.985968519032424 18.6087614649572 12.984916345656599 0 0 0
5295 2 -1.2 2.3265393434884896 17.453848362644695 10.855166597952024 0 0 0
5296 2 -1.2 3.186366314659711 12.583448227683597 4.3473137588005395 0 0 0
5297 2 -1.2 7.462538372395701 3.850763564990487 2.4920860656600143 0 0 0
5298 2 -1.2 8.164073219976594 15.598402360257488 13.817509791478917 0 0 0
5299 2 -1.2 11.015107400452848 14.025567603681644 14.892137136185953 0 0 0
5300 2 -1.2 9.397679996214904 1.815849722567709 0.8014219083791873 0 0 0
5301 2 -1.2 0.24400201673575178 18.465411105601913 13.025810763000912 0 0 0
5302 2 -1.2 16.350988225253193 13.543626240818655 12.930775839467962 0 0 0
5303 2 -1.2 5.547463217196301 8.513595486359192 0.5448612042343828 0 0 0
5304 2 -1.2 5.248649560849028 5.790773469428326 15.352520577806938 0 0 0
5305 2 -1.2 7.733229652855222 2.401722056227607 9.458665315362376 0 0 0
5306 2 -1.2 12.41724209004447 21.80620657653518 10.992172370146974 0 0 0
5307 2 -1.2 2.883754918869077 12.957863389012234 6.113593943847732 0 0 0
5308 2 -1.2 9.095801190782838 14.502911040346408 6.501996822163919 0 0 0
5309 2 -1.2 8.558413953978674 17.62456245377753 2.2356041460656186 0 0 0
5310 2 -1.2 15.475001882099903 14.526837484464624 7.078679100075459 0 0 0
5311 2 -1.2 9.65369441302422 21.396136856089456 12.312313129667759 0 0 0
5312 2 -1.2 1.2583436291574892 0.41467035797934193 9.076930265249578 0 0 0
5313 2 -1.2 10.727929829524792 6.092901219080592 6.8494647689287005 0 0 0
5314 2 -1.2 6.502686529792518 0.7492496135359096 10.579582167383666 0 0 0
5315 2 -1.2 8.283123002093543 8.692770315183155 0.2732291215566096 0 0 0
5316 2 -1.2 0.07630928817927866 10.939170375507205 9.343025395903032 0 0 0
5317 2 -1.2 2.078859073055527 4.093871370846144 5.9284949095091894 0 0 0
5318 2 -1.2 12.56413429487816 14.36726511193015 2.1795740260933836 0 0 0
5319 2 -1.2 10.92706600818354 6.682455795528861 10.468318717233622 0 0 0
5320 2 -1.2 11.568952910593104 19.814740138634296 3.3377519813668752 0 0 0
5321 2 -1.2 14.411814315896333 14.733761054692614 4.69923577516359 0 0 0
5322 2 -1.2 5.555480137331116 9.40228418653284 12.272632393308855 0 0 0
5323 2 -1.2 0.6814176427078963 8.266996508948772 5.358176042281893 0 0 0
5324 2 -1.2 8.76566749684105 20.79096919499461 13.987721537608568 0 0 0
5325 2 -1.2 16.043848182558463 4.730916887837628 4.617458533771149 0 0 0
5326 2 -1.2 11.839361059074593 13.607099475094167 8.911920262827714 0 0 0
5327 2 -1.2 2.6049790283841214 12.380552205947508 7.491920584300176 0 0 0
5328 2 -1.2 15.414504883807004 1.6414472180211197 14.355664118047232 0 0 0
5329 2 -1.2 14.928989856230654 6.543347086667578 14.872788984457909 0 0 0
5330 2 -1.2 3.1741581998011124 8.179193807688792 2.0267440279033493 0 0 0
5331 2 -1.2 8.708816527868334 2.2585497100653344 12.491427467664053 0 0 0
5332 2 -1.2 6.921743921939777 16.633219136154274 5.26362155491552 0 0 0
5333 2 -1.2 1.6968074199966823 7.832762681813073 2.107239680266336 0 0 0
5334 2 -1.2 16.430797130641174 16.375019040201835 15.874469065714125 0 0 0
5335 2 -1.2 8.744525376022924 0.0845646188404484 15.834824792141609 0 0 0
5336 2 -1.2 16.605337009514585 5.129627141404251 13.156289945751357 0 0 0
5337 2 -1.2 0.8014583088360218 18.0151520396744 8.142062038251543 0 0 0
5338 2 -1.2 7.362997801562376 4.018489639855876 10.578778209691066 0 0 0
5339 2 -1.2 3.56502399909604 18.72797028091938 8.752166137327265 0 0 0
5340 2 -1.2 13.882640867108679 22.052859655994453 7.088150667233565 0 0 0
5341 2 -1.2 13.854739916945078 21.602498276111646 0.4848112957991421 0 0 0
5342 2 -1.2 11.381133814719876 8.653863929980902 15.63205305552697 0 0 0
5343 2 -1.2 0.1036453768016773 1.8959038324029298 7.753965852483051 0 0 0
5344 2 -1.2 7.2712994723017434 2.139081821331182 12.369941597439366 0 0 0
5345 2 -1.2 15.017062724922395 14.415483126666814 9.469619671335316 0 0 0
5346 2 -1.2 12.14995758692986 13.58711091841108 7.593468104293796 0 0 0
5347 2 -1.2 16.509542662752065 1.3342971714337155 5.374819340885301 0 0 0
5348 2 -1.2 6.909133532169519 5.467930275888173 10.320330977075358 0 0 0
5349 2 -1.2 9.362119243069628 6.478867635311747 1.98015409216111 0 0 0
5350 2 -1.2 4.428651296386922 10.803807236256457 9.773440104559933 0 0 0
5351 2 -1.2 4.579669810883498 5.789908272953465 0.8111634248156319 0 0 0
5352 2 -1.2 8.478128165208428 6.778190648736505 13.263740510377545 0 0 0
5353 2 -1.2 1.9830477103260256 0.01255404385762432 10.218283106624138 0 0 0
5354 2 -1.2 6.686007395581743 3.234216803208491 13.696481233157987 0 0 0
5355 2 -1.2 12.401325616316313 22.001408638696535 12.38687497776556 0 0 0
5356 2 -1.2 6.411307795296301 4.241271000541288 7.017843091363513 0 0 0
5357 2 -1.2 5.384125454254593 7.255417840791687 2.9198770431007905 0 0 0
5358 2 -1.2 16.642157723335682 21.6427683071951 8.044783687247973 0 0 0
5359 2 -1.2 13.161502534800734 15.458673067237864 7.791822109437449 0 0 0
5360 2 -1.2 8.590266597572588 17.565191314134967 8.272520215943848 0 0 0
5361 2 -1.2 3.270215514932444 16.394233152233948 4.176829975352646 0 0 0
5362 2 -1.2 1.661436958965645 15.69402015857141 14.645589985795835 0 0 0
5363 2 -1.2 3.7796726936734517 12.333003891054094 11.45752020455173 0 0 0
5364 2 -1.2 10.047258302687677 10.365874150365409 11.27490584420466 0 0 0
5365 2 -1.2 9.155433678225922 12.85846745389823 8.712212553365978 0 0 0
5366 2 -1.2 8.236036268678019 20.416169834323632 5.764203005825663 0 0 0
5367 2 -1.2 6.762057174682203 9.811818091007368 1.9470326059305871 0 0 0
5368 2 -1.2 0.678033896131478 18.32221180190954 15.605497706840032 0 0 0
5369 2 -1.2 14.519622932618901 19.675394234672872 3.7556842004888344 0 0 0
5370 2 -1.2 5.56298427226323 1.6725919849227942 2.399009411909299 0 0 0
5371 2 -1.2 4.974597938558879 17.688393833643744 4.236101512375304 0 0 0
5372 2 -1.2 6.734342028905286 12.484271038123122 10.622388886467549 0 0 0
5373 2 -1.2 8.749262920411745 12.782629158958795 5.6890255599334685 0 0 0
5374 2 -1.2 6.117605317821572 20.496188291656612 12.11753534474899 0 0 0
5375 2 -1.2 8.020648594963228 14.39111386226507 1.450456888170066 0 0 0
5376 2 -1.2 10.127019557135164 12.396397592824602 6.101961816354899 0 0 0
5377 2 -1.2 3.281368826826985 3.0704141553227764 4.6249823336760905 0 0 0
5378 2 -1.2 15.78592467398137 19.990368416098875 10.38507520435693 0 0 0
5379 2 -1.2 2.1869662171548216 14.052854171477065 5.016574054067802 0 0 0
5380 2 -1.2 12.07073389368095 20.5913785404266 5.759790354212953 0 0 0
5381 2 -1.2 15.495067197623046 17.135375467788453 12.34874297488473 0 0 0
5382 2 -1.2 8.156504324642679 22.239666488821072 1.2359218515259378 0 0 0
5383 2 -1.2 8.931845305699989 2.855954568598166 14.198284405565412 0 0 0
5384 2 -1.2 16.343452987875942 20.75057964700023 4.41902842424771 0 0 0
5385 2 -1.2 3.209714215900637 3.4365603669837035 1.266713459200859 0 0 0
5386 2 -1.2 12.604394727211014 21.76591130198422 3.0079330204846517 0 0 0
5387 2 -1.2 5.237592392284396 20.730473412127925 1.1227589395234918 0 0 0
5388 2 -1.2 0.5265800720620735 16.01986277468654 3.1632308013582775 0 0 0
5389 2 -1.2 9.991244637716477 5.906023018919941 11.502222801538924 0 0 0
5390 2 -1.2 8.915886853020327 2.3456163928415306 3.4525968250944055 0 0 0
5391 2 -1.2 3.2106650531763377 19.417282459691894 15.850942278666496 0 0 0
5392 2 -1.2 5.837664456894041 0.3392188802233236 12.554979673478622 0 0 0
5393 2 -1.2 2.110813843616092 5.750948159679652 15.26697966006987 0 0 0
5394 2 -1.2 7.960607693147873 9.171337093913483 12.44379890347582 0 0 0
5395 2 -1.2 6.627202488730474 18.787807396273056 10.546903844249195 0 0 0
5396 2 -1.2 2.1627416819667244 8.466155282069169 6.327475735649646 0 0 0
5397 2 -1.2 4.424251360002283 3.7799204224674385 16.496581731596127 0 0 0
5398 2 -1.2 12.177740547256496 12.054417108421937 14.058544703511043 0 0 0
5399 2 -1.2 10.983679782056113 21.22833723235581 2.9894851567677665 0 0 0
5400 2 -1.2 6.451571094788426 11.688105536466521 14.63760310850382 0 0 0
5401 2 -1.2 5.153051863814781 5.300535482577707 7.801487926636179 0 0 0
5402 2 -1.2 13.666744553106223 7.479086369118115 14.269568467320733 0 0 0
5403 2 -1.2 12.126045104630704 13.24508493343737 14.785322893929324 0 0 0
5404 2 -1.2 12.830379390427408 5.117037819021682 2.345080670364661 0 0 0
5405 2 -1.2 5.089883265211835 14.439402808028921 9.932640307355094 0 0 0
5406 2 -1.2 15.176760099368138 21.41549532335792 3.040852496645653 0 0 0
5407 2 -1.2 9.429757462493413 5.535073442866053 1.056190326331741 0 0 0
5408 2 -1.2 6.2243645542508785 7.800886882791565 1.7774375483624434 0 0 0
5409 2 -1.2 8.438389898675457 8.155585057283735 6.789539987063828 0 0 0
5410 2 -1.2 5.002076419036823 11.03830720668446 2.389646921462598 0 0 0
5411 2 -1.2 1.2795156058297668 21.622862274835384 8.113317831614461 0 0 0
5412 2 -1.2 16.00039018201317 10.516585754160866 1.1027587272146717 0 0 0
5413 2 -1.2 1.2592586269423003 15.793038127298008 5.694490303174837 0 0 0
5414 2 -1.2 9.856554564104645 17.64865192083213 5.552212915847252 0 0 0
5415 2 -1.2 0.8890855212497387 18.397143014916935 3.383358668467739 0 0 0
5416 2 -1.2 9.521611709121805 10.034984461319263 4.85695427991103 0 0 0
5417 2 -1.2 1.0682310551854954 17.633151746164245 12.74415328395407 0 0 0
5418 2 -1.2 13.033778567450819 10.428961907542817 0.7773366797339415 0 0 0
5419 2 -1.2 7.885341614636467 15.765391606354951 9.520320832989492 0 0 0
5420 2 -1.2 11.683576266266932 5.440002866830862 9.425274970620627 0 0 0
5421 2 -1.2 14.901593806581756 14.57884865742277 11.194490970937663 0 0 0
5422 2 -1.2 8.115765575347929 6.801947120173578 10.983691936318241 0 0 0
5423 2 -1.2 6.542904079395402 7.4271657609952095 11.67587978234545 0 0 0
5424 2 -1.2 13.337092510757222 21.862262843753374 16.16803946687373 0 0 0
5425 2 -1.2 5.7830889216155485 20.05001349411093 8.952241310647334 0 0 0
5426 2 -1.2 10.951381264030749 13.793896802664504 2.8999366048298203 0 0 0
5427 2 -1.2 13.014244704830416 16.752552860533402 3.1302071101907223 0 0 0
5428 2 -1.2 11.735268654744806 4.1980039777352784 16.013274821800675 0 0 0
5429 2 -1.2 14.093696543647651 22.195883096863273 1.5527372478404515 0 0 0
5430 2 -1.2 12.859064789134656 18.75162587198079 4.776621089518488 0 0 0
5431 2 -1.2 8.172393342204336 21.583008636306523 7.551655105215584 0 0 0
5432 2 -1.2 4.452463552770684 9.461336261212152 0.8731914861593567 0 0 0
5433 2 -1.2 16.566004601842362 13.328291422561733 7.794061547816909 0 0 0
5434 2 -1.2 8.868591627262147 10.564885108959464 9.759886793366745 0 0 0
5435 2 -1.2 13.49186441722278 13.00577870029236 8.316102595104917 0 0 0
5436 2 -1.2 12.08563610981692 3.3495491263416755 11.237360050735695 0 0 0
5437 2 -1.2 12.779052595921389 12.50357459305859 0.42801667273905974 0 0 0
5438 2 -1.2 14.837822668225012 13.590830340775652 3.1799557828361396 0 0 0
5439 2 -1.2 11.596759337995078 18.676457463873252 13.012222079788454 0 0 0
5440 2 -1.2 7.028680423607503 6.917214589410638 7.434571321744989 0 0 0
5441 2 -1.2 1.6051989076166981 7.462907176339347 10.049251445852786 0 0 0
5442 2 -1.2 9.935575187681694 7.231392323854742 0.6780779007933362 0 0 0
5443 2 -1.2 3.7085499719566863 21.63861204818374 5.116382486139563 0 0 0
5444 2 -1.2 15.407098076466237 11.006924247409852 10.343002415716928 0 0 0
5445 2 -1.2 1.4780061438513237 11.361134662013397 7.157324406270954 0 0 0
5446 2 -1.2 7.244238880287578 15.812619859012331 0.17543521168539322 0 0 0
5447 2 -1.2 13.447374395163727 1.4462619848380938 13.243806149237638 0 0 0
5448 2 -1.2 3.8630899813337973 8.88463353920842 12.477923178661447 0 0 0
5449 2 -1.2 14.5071139218607 10.213982430046878 1.6128345578979912 0 0 0
5450 2 -1.2 5.2961300611927244 0.6854147120501551 8.519896941471359 0 0 0
5451 2 -1.2 8.67700816941925 3.062221278870079 0.7789957988439544 0 0 0
5452 2 -1.2 10.601063329785614 15.474648193071982 8.582385992162255 0 0 0
5453 2 -1.2 7.450398539558441 0.5941250776447686 13.509423555059914 0 0 0
5454 2 -1.2 10.78047893765881 19.24978959083549 11.683743527612679 0 0 0
5455 2 -1.2 3.5721149826101284 4.054442196548517 12.500802517514954 0 0 0
5456 2 -1.2 14.272415836960013 14.26806567072055 8.080665686890724 0 0 0
5457 2 -1.2 2.255130653799196 21.953192805494094 5.133494378295164 0 0 0
5458 2 -1.2 11.075002825099963 16.800309605439924 2.6676907202253806 0 0 0
5459 2 -1.2 9.713469728629693 22.15220619494058 3.659330664174103 0 0 0
5460 2 -1.2 3.06725822324932 18.509075977921583 10.717035808555647 0 0 0
5461 2 -1.2 14.208531695130253 11.380797983107849 3.009542026636968 0 0 0
5462 2 -1.2 8.299317434447135 13.169218870683691 11.295442246461972 0 0 0
5463 2 -1.2 3.5886635714632615 14.483199039873892 9.831624894724479 0 0 0
5464 2 -1.2 16.410895274361266 16.513740557902405 4.962476960410306 0 0 0
5465 2 -1.2 4.38518332311373 16.42186446476696 0.095391697873566 0 0 0
5466 2 -1.2 16.04077147134226 19.946475479958053 8.860781516572155 0 0 0
5467 2 -1.2 11.970967721043666 16.96741509614697 0.32422491499067746 0 0 0
5468 2 -1.2 4.3968060076798325 10.986791958785908 6.608847527206931 0 0 0
5469 2 -1.2 14.49489661339357 5.6552110314434545 12.433321462049916 0 0 0
5470 2 -1.2 1.6537624462103173 20.56017228542447 16.683014555961723 0 0 0
5471 2 -1.2 5.01394455736836 9.72857613636941 8.342225065071453 0 0 0
5472 2 -1.2 5.236441414825656 1.3859952630653554 4.228673357163877 0 0 0
5473 2 -1.2 0.47886215846481217 17.135016979385227 6.323628381884983 0 0 0
5474 2 -1.2 1.6614018985941221 15.104760494386003 15.983326439434462 0 0 0
5475 2 -1.2 4.0855960635644 0.6970934308811451 4.026592325450628 0 0 0
5476 2 -1.2 2.9433869388405394 11.305563007041583 10.12633533450691 0 0 0
5477 2 -1.2 0.8966678797663168 11.982154597400545 4.207714017749288 0 0 0
5478 2 -1.2 15.466782453259174 10.234584963956074 13.250401955646725 0 0 0
5479 2 -1.2 3.0107929495281303 6.459036585399928 3.308918238332117 0 0 0
5480 2 -1.2 4.755547406545573 17.027522441261958 6.660714220269629 0 0 0
5481 2 -1.2 6.563022686683258 10.931378433880855 12.235550487511107 0 0 0
5482 2 -1.2 8.880887626785361 16.44621708717902 7.834852560438811 0 0 0
5483 2 -1.2 12.26478706642347 2.676696685649662 13.074025817083982 0 0 0
5484 2 -1.2 14.539400877754654 17.45409811714904 15.052790552424769 0 0 0
5485 2 -1.2 12.643538556831608 10.397815707061508 12.709897212936292 0 0 0
5486 2 -1.2 10.959485102722166 16.14342568364979 5.183877659247534 0 0 0
5487 2 -1.2 16.34236742527927 2.5055290847155858 14.071449039436148 0 0 0
5488 2 -1.2 8.048857328441638 20.01438941414349 12.550925323280488 0 0 0
5489 2 -1.2 3.428953138976925 7.263720354921732 8.608544021136709 0 0 0
5490 2 -1.2 7.809868913668887 18.886742497863764 0.2030562086779806 0 0 0
5491 2 -1.2 12.280615375004038 0.9997029879500727 3.621273768400269 0 0 0
17501 3 1.2 5.969738590483419 11.556330023748195 8.439412944734107 0 0 0
17502 3 1.2 5.344055282871204 3.0544874283837475 4.647858680711227 0 0 0
17503 3 1.2 0.7818019374863235 22.27973877940914 5.472469736969084 0 0 0
17504 3 1.2 3.1901734970298024 9.64491831897803 7.748012227421166 0 0 0
17505 3 1.2 15.916382477696379 4.041823361124318 1.1935675514761868 0 0 0
17506 3 1.2 2.115674114887632 20.511683417631 4.840741584999474 0 0 0
17507 3 1.2 1.8881250111467247 10.86700500508851 1.1248368197109744 0 0 0
17508 3 1.2 2.3138606716968915 5.1409435697295045 2.573968799814771 0 0 0
17509 3 1.2 10.003796063733027 16.080308070618237 15.179659483016371 0 0 0
17510 3 1.2 0.6015760766360411 4.886675595728876 12.346145951880512 0 0 0
17511 3 1.2 16.235306046359373 10.12272165422285 7.087387348407155 0 0 0
17512 3 1.2 16.72123902472905 12.245320769034588 10.135856484821543 0 0 0
17513 3 1.2 3.8350184663583344 5.567589366359631 12.144564460340721 0 0 0
17514 3 1.2 4.99394182071279 8.171801180320507 11.630543854807067 0 0 0
18201 4 0.6 3.8518753059978974 21.177117177203094 12.16999024176913 0 0 0
18202 4 0.6 13.802585822330219 15.084602120845647 11.810762360770523 0 0 0
18203 4 0.6 6.781419319394081 0.6021642494287093 14.772095722103234 0 0 0
18204 4 0.6 4.8707490869432695 12.372688803492801 9.183403533706354 0 0 0
18205 4 0.6 2.4018978255568415 12.412820431811875 14.41724066413529 0 0 0
18206 4 0.6 6.79374632786811 7.004663663972245 4.822599416557495 0 0 0
18207 4 0.6 2.3384136212806403 16.247303206858113 10.981466148110092 0 0 0
18621 5 0.6 4.453047362494895 19.27342629604344 7.390783940696029 0 0 0
18622 5 0.6 9.928299677536685 18.803581322321794 7.955902934102021 0 0 0
18623 5 0.6 14.69019051814593 8.59351206604372 5.185935905626963 0 0 0
18624 5 0.6 13.818096686515823 8.072320477019357 12.804463542917047 0 0 0
18625 5 0.6 1.4539180792115813 8.068096278799178 8.734208059209362 0 0 0
18626 5 0.6 14.291629855497803 2.5688552212545743 7.58032180505802 0 0 0
18627 5 0.6 6.936987797500638 5.1336596762601046 14.005259265245494 0 0 0
18628 5 0.6 1.1238049540210868 14.701853436436153 3.834647761363432 0 0 0
18629 5 0.6 0.8561390563938579 0.07266020471117508 16.534868529912824 0 0 0
18630 5 0.6 2.334101787714043 10.704160455870998 8.156102236719667 0 0 0
18631 5 0.6 5.591283258929133 8.812752859006489 9.044523075654881 0 0 0
18632 5 0.6 8.745511211340599 16.653498802997714 11.474762178476876 0 0 0
18633 5 0.6 10.059908739193409 22.20422849372329 7.962134268471141 0 0 0
18634 5 0.6 13.4915762988808 8.163373726608743 3.842017326798447 0 0 0
18635 5 0.6 1.7883820874313563 7.633786191459821 4.201566454294526 0 0 0
18636 5 0.6 16.115276038584188 0.5537010614095823 3.3614227185087833 0 0 0
18637 5 0.6 2.8314737966325922 4.3050139971064905 7.532882317557812 0 0 0
18638 5 0.6 12.109693352494494 6.124562791440901 3.5787594060677255 0 0 0
18639 5 0.6 11.328962610643714 1.8484090585924275 12.61943045324174 0 0 0
18640 5 0.6 6.50746084861547 14.065382068088727 14.795400397801668 0 0 0
18641 5 0.6 11.464917350812346 11.361030976808012 5.414687159386648 0 0 0
18642 5 0.6 8.589593968240518 6.26031013003399 9.605583044146536 0 0 0
18643 5 0.6 13.144893735602905 4.017960960618085 1.6932662601433202 0 0 0
18644 5 0.6 15.74594805925159 17.361844680921678 3.8436999441485744 0 0 0
18645 5 0.6 12.65182695331872 15.849207460318768 12.770654343603503 0 0 0
18646 5 0.6 5.974334709124712 21.87745202513466 3.749234930850327 0 0 0
18647 5 0.6 11.536434992553945 8.692843677062768 1.5062222322165597 0 0 0
18648 5 0.6 16.140202840805085 17.943401971043187 6.903850604223673 0 0 0
18649 5 0.6 2.1513722735245038 18.158039602125587 0.32294005365988093 0 0 0
18650 5 0.6 1.3506231503012596 12.062170156409477 10.512334224433289 0 0 0
116 1 2.4 11.238554160242602 21.647995232040834 28.967865566658247 0 0 0
117 1 2.4 2.7489163762706363 22.20517403298729 23.853812678591318 0 0 0