LAMMPS data file via write_data, version 29 Aug 2024, timestep = 0, units = metal

20300 atoms
5 atom types

0 66.5904793015873 xlo xhi
0 66.5904793015873 ylo yhi
0 66.5904793015873 zlo zhi

Masses

1 28.086
2 15.9994
3 40.078
4 22.99
5 39.1

Atoms # charge

1 1 2.4 6.640704177032447 4.671793924034919 8.665384683461644 0 0 0
2 1 2.4 7.829227016957996 3.031374076562881 6.587439078059025 0 0 0
3 1 2.4 13.934764351828102 2.868757492422459 3.7001607950627546 0 0 0
4 1 2.4 14.549128699083129 6.966050061604565 12.340773197468529 0 0 0
5 1 2.4 6.383229128145837 5.6698018899499765 1.3844838178339856 0 0 0
6 1 2.4 2.4887377878005568 9.394998167136093 15.707770992842605 0 0 0
7 1 2.4 21.82397141290166 15.127543495350034 6.173552887730684 0 0 0
8 1 2.4 10.83256211759482 4.501099876502409 3.2011377728197123 0 0 0
9 1 2.4 5.353429927636721 11.359257345944611 0.13405564031037284 0 0 0
10 1 2.4 5.400410387925781 1.8741018051365739 0.7323292796090708 0 0 0
11 1 2.4 9.378397553624412 3.063176908376454 8.373798956078009 0 0 0
12 1 2.4 9.41046985024436 9.378431787128008 3.6385394032911553 0 0 0
13 1 2.4 12.064853515150162 5.98355579546206 13.998508934020562 0 0 0
14 1 2.4 18.820523626982165 11.763916149649614 9.005680748367162 0 0 0
15 1 2.4 5.297418582275299 2.2432860787244384 12.697840423231533 0 0 0
16 1 2.4 2.2069035855468364 0.5315913015532031 11.33077879198689 0 0 0
17 1 2.4 5.887994210522024 6.0664540849329205 8.869994737448096 0 0 0
18 1 2.4 6.61696829669274 5.285728864081811 5.545630305561516 0 0 0
19 1 2.4 14.98133666673703 12.723118547715066 15.424394050307326 0 0 0
20 1 2.4 15.448293718116224 3.1937234905339453 4.984388324655776 0 0 0
21 1 2.4 1.7916110928135822 12.710992600419615 11.395035760423369 0 0 0
22 1 2.4 1.2757864592596742 0.008685666235842172 12.799033822624793 0 0 0
23 1 2.4 14.402307527921922 3.1903605139348987 15.053319926076275 0 0 0
24 1 2.4 1.1173814953110313 1.315628644885699 3.731506466963741 0 0 0
25 1 2.4 21.19369143229293 9.898118356797575 14.657927331772242 0 0 0
26 1 2.4 4.786991648181733 13.669634672932572 8.396357501576702 0 0 0
27 1 2.4 18.25356030977096 5.249983907891443 4.094465328309151 0 0 0
28 1 2.4 6.288637151379623 14.033951618296944 5.147162494543724 0 0 0
29 1 2.4 8.736829633360308 7.8887878867061705 5.213722410303538 0 0 0
30 1 2.4 1.0820062547577622 6.078274380376078 7.762262345833671 0 0 0
31 1 2.4 4.133393039066962 16.06689604288011 11.928224749512085 0 0 0
32 1 2.4 4.041922233772049 10.29809538779132 11.433477783348929 0 0 0
33 1 2.4 19.58101628905391 7.9920616846407935 9.583982456239493 0 0 0
34 1 2.4 15.92843190872368 15.428297537958144 0.07032008162293941 0 0 0
35 1 2.4 8.930977848025863 8.004345992898978 16.274913446784122 0 0 0
36 1 2.4 10.269739596913974 0.9910556188675593 9.051960910245732 0 0 0
37 1 2.4 10.737834385141346 10.583603769037271 15.45833166976127 0 0 0
38 1 2.4 20.781938789260625 14.981294277969447 12.01069053091398 0 0 0
39 1 2.4 16.731940394458036 2.12811905309987 8.209540497135203 0 0 0
40 1 2.4 4.433932192019356 6.352012793150189 13.74069403078667 0 0 0
41 1 2.4 10.725966088372497 10.884577879738691 13.053783307865157 0 0 0
42 1 2.4 15.14777813170616 13.3046896171979 1.0889015149573273 0 0 0
43 1 2.4 20.53630657907543 15.250454393758293 7.6321640861353925 0 0 0
44 1 2.4 2.5406321822514277 15.907854782288567 2.5409300509430306 0 0 0
45 1 2.4 16.177659846122037 9.002045392152558 3.807932701721503 0 0 0
46 1 2.4 13.510768859046951 1.9577955894454933 8.973696826280952 0 0 0
47 1 2.4 7.5207826224241705 13.063820670346644 14.82374918272975 0 0 0
48 1 2.4 8.712630794498256 0.7217789417200053 11.471440599241381 0 0 0
49 1 2.4 1.71226976979547 11.03096266675489 9.495164530412904 0 0 0
50 1 2.4 14.68798258043764 10.016458431295177 5.885180365367866 0 0 0
51 1 2.4 6.0153930468308765 16.363358277035303 0.2830465768221465 0 0 0
52 1 2.4 18.218052569434303 7.7857057839882335 4.065283871217842 0 0 0
53 1 2.4 19.295755418519636 8.127120329396158 15.438328605692142 0 0 0
54 1 2.4 20.08843470595023 12.592043857949133 9.937900106645968 0 0 0
55 1 2.4 14.38235125584276 0.7376921874108691 12.563443719238155 0 0 0
56 1 2.4 2.156022087287014 11.042480969361538 3.3118385355609083 0 0 0
57 1 2.4 6.648521974338392 2.884554641883741 2.8409345844792346 0 0 0
58 1 2.4 0.24223760480565698 9.268186571851764 15.28062669992013 0 0 0
59 1 2.4 21.10201739657903 0.7136240498329214 7.593131256195349 0 0 0
60 1 2.4 20.89628238129103 5.63014578698253 0.7891542598444246 0 0 0
61 1 2.4 16.795325214776668 1.9891253229217987 2.808692949849206 0 0 0
62 1 2.4 12.373996657664062 7.694966502772399 10.591208413169566 0 0 0
63 1 2.4 10.186778763080113 5.068386706524306 15.152349823857849 0 0 0
64 1 2.4 12.42137880346541 4.960939366968931 7.227855059532336 0 0 0
65 1 2.4 12.0852307911046 15.512036253740533 9.066850902870366 0 0 0
66 1 2.4 5.808700764795171 5.191097785460496 13.252595155206095 0 0 0
67 1 2.4 14.838540009824948 9.99696068350737 11.138929803611676 0 0 0
68 1 2.4 16.720579677598916 10.959988706608128 15.264443772362634 0 0 0
69 1 2.4 17.802493247626384 15.480510824937065 11.942803415709102 0 0 0
70 1 2.4 9.54927309454147 11.577783133090623 10.420598616025886 0 0 0
71 1 2.4 15.793699939657055 15.06438968916345 10.19520113522264 0 0 0
72 1 2.4 0.9510352577780791 2.334545095224468 14.90710680271578 0 0 0
73 1 2.4 20.166961773922246 0.5868892318628137 8.456383283389544 0 0 0
74 1 2.4 17.706779844539973 4.996848389705967 11.436486486597822 0 0 0
75 1 2.4 17.033805568528383 14.699672732751642 6.7214104679805695 0 0 0
76 1 2.4 10.575259445561908 8.396245622517853 10.474537594075501 0 0 0
77 1 2.4 8.305347763279025 14.33524130360532 8.046476551802426 0 0 0
78 1 2.4 8.518830310366496 6.450527917024902 4.722398453405151 0 0 0
79 1 2.4 3.4114420925965585 1.704571603700456 14.828843711026465 0 0 0
80 1 2.4 5.309219900450159 0.8166027388420822 7.003495591892884 0 0 0
81 1 2.4 9.37915354349546 15.769098671076115 1.1337444588484826 0 0 0
82 1 2.4 17.310519722400734 4.100905754241755 2.7769343983283266 0 0 0
83 1 2.4 11.791664078777899 9.231770496351341 2.549959478610802 0 0 0
84 1 2.4 11.284540801815647 9.592205194961599 0.6423225767649945 0 0 0
85 1 2.4 15.24263414677229 9.37823159555264 0.27391959607257377 0 0 0
86 1 2.4 3.411785792011271 7.481127666775233 12.487774094523608 0 0 0
87 1 2.4 4.7390125866700625 6.371299465341105 4.9393970355823775 0 0 0
88 1 2.4 3.815593068322965 2.0411318755089938 11.206591362199575 0 0 0
89 1 2.4 13.182463636930398 11.141709508288063 6.283909733996909 0 0 0
90 1 2.4 22.15643768016981 9.287836137785948 12.578484847819782 0 0 0
91 1 2.4 20.8683201826792 1.802828828979701 1.4760464396181587 0 0 0
92 1 2.4 2.2551445457644483 12.231658059914208 12.667408978129895 0 0 0
93 1 2.4 20.75021369602813 14.501486732152598 5.33326347921031 0 0 0
94 1 2.4 14.949111094566115 3.8317614838517633 7.4217744616770345 0 0 0
95 1 2.4 18.07928352763218 6.161195771260143 3.0220136009925946 0 0 0
96 1 2.4 13.193968171714948 4.726987727437763 4.040928252832081 0 0 0
97 1 2.4 7.0287447233276295 0.6022839516052089 0.8335207874772211 0 0 0
98 1 2.4 0.8446793592186495 12.753899149746482 0.030137979632417954 0 0 0
99 1 2.4 6.799131281127437 3.736960385030983 12.27120981891463 0 0 0
100 1 2.4 7.682867160862893 7.009006844876926 1.8201573385632839 0 0 0
101 1 2.4 3.883733244780414 15.234929468869526 13.066668686987178 0 0 0
102 1 2.4 1.5932558782388897 8.478866322926958 0.6805840365642598 0 0 0
103 1 2.4 15.725565685843796 1.9701339767166026 16.573533787053154 0 0 0
104 1 2.4 7.893313903177791 14.692001947257783 10.979477275847872 0 0 0
105 1 2.4 11.261029826912145 13.986125801327633 0.42440831038382854 0 0 0
106 1 2.4 12.620045406484936 14.426571236792597 11.44763969385001 0 0 0
107 1 2.4 13.400159540691716 7.480402437443646 0.29884471855889494 0 0 0
108 1 2.4 20.036562203576842 6.44712738900117 14.160203260132079 0 0 0
109 1 2.4 14.422425975022641 8.368704427781292 13.723032767827116 0 0 0
110 1 2.4 9.866185257820415 10.682167235332368 7.252527151774697 0 0 0
111 1 2.4 19.755156106169704 4.778878679933109 10.495935921484978 0 0 0
5251 2 -1.2 21.300656401937143 9.715422024299627 7.242714911789674 0 0 0
5252 2 -1.2 21.34816137283608 9.045716303674723 5.289670337277833 0 0 0
5253 2 -1.2 15.488669251805499 15.88052519029524 9.345832530218127 0 0 0
5254 2 -1.2 2.868598170192867 1.0224320823166158 3.6723476858397626 0 0 0
5255 2 -1.2 2.2747306990946012 8.463740571853203 12.82400294632633 0 0 0
5256 2 -1.2 5.614880962300423 10.59516303401552 9.963460254422248 0 0 0
5257 2 -1.2 21.114834060625 16.351858765645304 6.782196549861017 0 0 0
5258 2 -1.2 17.493151588001965 10.432623041137669 8.363451321461588 0 0 0
5259 2 -1.2 18.091570254561816 12.89277737285853 3.4896582682614725 0 0 0
5260 2 -1.2 3.5270879221423272 14.240129033399965 7.666054448470246 0 0 0
5261 2 -1.2 7.496675227948079 7.433717520200564 14.75119223312782 0 0 0
5262 2 -1.2 11.80716463090052 3.3876328148809365 1.0849168467699042 0 0 0
5263 2 -1.2 22.037062631352025 0.6657697049439483 2.3909083262732027 0 0 0
5264 2 -1.2 18.97874043069547 7.294564095689602 6.66636203293357 0 0 0
5265 2 -1.2 9.623913977666112 0.8479990788090772 1.9579470044799612 0 0 0
5266 2 -1.2 0.9594716458115687 10.9439601709115 12.234761525470153 0 0 0
5267 2 -1.2 16.21286822935389 1.4350286556331855 12.773108052347713 0 0 0
5268 2 -1.2 10.499924031627925 7.4530503642092825 6.725904979706129 0 0 0
5269 2 -1.2 21.026977153587726 4.731366825123123 11.04994374911073 0 0 0
5270 2 -1.2 15.761591766077272 8.146150746447848 2.330151485510409 0 0 0
5271 2 -1.2 14.874386271138729 13.150760869895903 11.037138372198195 0 0 0
5272 2 -1.2 12.909366172090436 15.93568975258043 4.229920635182254 0 0 0
5273 2 -1.2 15.967524771329447 6.557246337224299 0.3959456018249637 0 0 0
5274 2 -1.2 18.658225005111547 14.22062973518174 12.893745802705237 0 0 0
5275 2 -1.2 14.176805082979484 8.828088556834512 10.096490781149889 0 0 0
5276 2 -1.2 3.443113851022727 1.2879810596139645 5.191895916030263 0 0 0
5277 2 -1.2 16.360352271535334 16.351591440432905 2.2892617050606154 0 0 0
5278 2 -1.2 6.542277892820596 15.183217715121712 9.623454368073467 0 0 0
5279 2 -1.2 7.754657298589468 14.957224186849173 7.007544882020063 0 0 0
5280 2 -1.2 0.0401506592616764 8.907337195122329 10.218768452767474 0 0 0
5281 2 -1.2 18.07193650301788 15.860711681848823 9.292592579226058 0 0 0
5282 2 -1.2 13.737363458183328 14.675903084037465 6.767800338315406 0 0 0
5283 2 -1.2 7.497053315909428 13.788241886590926 4.11341840989167 0 0 0
5284 2 -1.2 20.107710153024932 3.602086334520997 9.519339151551852 0 0 0
5285 2 -1.2 11.803682550236884 11.454782402744037 7.45218203015026 0 0 0
5286 2 -1.2 5.273810240341645 5.000759009336701 10.571791318772021 0 0 0
5287 2 -1.2 0.6467638777186627 15.91236665883479 11.781559861736854 0 0 0
5288 2 -1.2 17.504538507135127 2.041135007378435 11.259228691897388 0 0 0
5289 2 -1.2 22.081089273628933 8.126274135483483 1.2163475153594483 0 0 0
5290 2 -1.2 3.788400286309584 11.145399687722191 1.7142761817973626 0 0 0
5291 2 -1.2 15.432678837254697 7.11633805719411 7.792901610628327 0 0 0
5292 2 -1.2 14.41039665055074 5.963285933326873 6.275332535873 0 0 0
5293 2 -1.2 11.28056509511603 9.36298199609722 10.335818755210262 0 0 0
5294 2 -1.2 19.438094450390007 3.1619741175611304 4.096511183260838 0 0 0
5295 2 -1.2 6.153911539077706 13.776881913938404 12.957795943724161 0 0 0
5296 2 -1.2 12.837715138980824 10.325403707879333 4.271058391472851 0 0 0
5297 2 -1.2 3.170399466530055 12.520392700805086 4.325529415224166 0 0 0
5298 2 -1.2 19.193219439411582 16.157381301576518 1.132943723555617 0 0 0
5299 2 -1.2 7.425143671006355 3.8314674292189848 2.479598248564611 0 0 0
5300 2 -1.2 8.123163134835714 15.52023892989305 13.74827039506817 0 0 0
5301 2 -1.2 10.959910812984008 13.955285631759619 14.817512793439949 0 0 0
5302 2 -1.2 19.568787083092722 2.227234999769555 9.28927363485084 0 0 0
5303 2 -1.2 9.350588320477462 1.8067505186836093 0.7974059916153183 0 0 0
5304 2 -1.2 21.185941977959736 12.83399798205745 14.441626598325445 0 0 0
5305 2 -1.2 16.269053595025255 13.475759272003092 12.86597985757551 0 0 0
5306 2 -1.2 5.5196649372916 8.470933948813238 0.542130910463787 0 0 0
5307 2 -1.2 5.222348633037214 5.761755964405689 15.275589258471348 0 0 0
5308 2 -1.2 7.694478520303133 2.389687052234186 9.411268042831342 0 0 0
5309 2 -1.2 2.8693044532647645 12.892931671693573 6.082958788819041 0 0 0
5310 2 -1.2 9.050222226568147 14.430237105477795 6.469415384392198 0 0 0
5311 2 -1.2 16.90703803647649 15.013099187359776 13.83196824150478 0 0 0
5312 2 -1.2 15.397456810235179 14.454043654435885 7.043207913467229 0 0 0
5313 2 -1.2 1.2520380824508097 0.412592449171662 9.031445863044492 0 0 0
5314 2 -1.2 10.674172285847042 6.06236975507833 6.815142172925927 0 0 0
5315 2 -1.2 6.470101635903115 0.745495131593425 10.5265679922825 0 0 0
5316 2 -1.2 8.241616359745107 8.649210934452215 0.2718599732987893 0 0 0
5317 2 -1.2 18.843831619535553 3.958471184849125 6.136381473539989 0 0 0
5318 2 -1.2 0.07592690313784918 10.884354307672641 9.296207593793598 0 0 0
5319 2 -1.2 2.068441932079073 4.073357024413371 5.898787283797085 0 0 0
5320 2 -1.2 12.501175549914041 14.295270897383858 2.1686522035452773 0 0 0
5321 2 -1.2 10.872310595206478 6.648970079737347 10.415862082112323 0 0 0
5322 2 -1.2 14.33959686575696 14.659930332827217 4.675687954060198 0 0 0
5323 2 -1.2 5.527641684723836 9.355169439246083 12.211134361311244 0 0 0
5324 2 -1.2 0.678003066058649 8.225570676288074 5.331326278422206 0 0 0
5325 2 -1.2 15.96345262785793 4.70721031301144 4.594320497565296 0 0 0
5326 2 -1.2 11.780034145181268 13.538914442568442 8.867262724011317 0 0 0
5327 2 -1.2 2.59192550583846 12.318513388902472 7.45437864895564 0 0 0
5328 2 -1.2 15.337262961765198 1.6332219432551869 14.283728035959417 0 0 0
5329 2 -1.2 14.854180844891648 6.510558443154817 14.798261595096958 0 0 0
5330 2 -1.2 3.158252526406766 8.138207953441732 2.0165880348706793 0 0 0
5331 2 -1.2 8.665176739734195 2.247232141194493 12.428833055847312 0 0 0
5332 2 -1.2 6.887059135860564 16.549870249796676 5.237245602598721 0 0 0
5333 2 -1.2 1.6883047358402146 7.793512790298481 2.09668032436529 0 0 0
5334 2 -1.2 16.348462578826737 16.292963991812634 15.794922267988754 0 0 0
5335 2 -1.2 8.700706651225806 0.08414086642379888 15.755476651454641 0 0 0
5336 2 -1.2 19.973116048230935 5.555263315790401 7.458567663871948 0 0 0
5337 2 -1.2 18.590604874024375 9.767234680058944 12.38178933799726 0 0 0
5338 2 -1.2 16.522127840200675 5.103922633685933 13.090363915041369 0 0 0
5339 2 -1.2 18.820437578094058 10.317692487160214 7.8495303683901785 0 0 0
5340 2 -1.2 7.326101896927792 3.998353030485202 10.525768063213452 0 0 0
5341 2 -1.2 11.32410307273429 8.610499508737494 15.553721001882042 0 0 0
5342 2 -1.2 0.1031260109073294 1.8864034782154224 7.715110811052463 0 0 0
5343 2 -1.2 7.234863067031784 2.128362904795765 12.3079559500421 0 0 0
5344 2 -1.2 14.941812381363588 14.343247292155212 9.422167506641578 0 0 0
5345 2 -1.2 12.089074277098302 13.519026048332911 7.555417315393339 0 0 0
5346 2 -1.2 16.426813517903447 1.3276110223245894 5.347886177631152 0 0 0
5347 2 -1.2 6.874511936620972 5.4405305347168635 10.268615906965366 0 0 0
5348 2 -1.2 9.315205761892626 6.446402097652368 1.970231560807012 0 0 0
5349 2 -1.2 4.4064593712641615 10.749669471690677 9.724465498866971 0 0 0
5350 2 -1.2 20.254905443045622 13.66559155351845 7.034128810008916 0 0 0
5351 2 -1.2 4.5567211335710605 5.760895103421274 0.8070986934152354 0 0 0
5352 2 -1.2 8.435644354036173 6.744225206601272 13.197276046016993 0 0 0
5353 2 -1.2 1.9731106790817008 0.012491135675735279 10.167079397320954 0 0 0
5354 2 -1.2 6.6525038827596745 3.2180101767833915 13.62784830958157 0 0 0
5355 2 -1.2 18.436334070763905 13.96653704327438 4.14854821731002 0 0 0
5356 2 -1.2 17.695459872992195 14.513524490965963 7.8804379506727 0 0 0
5357 2 -1.2 6.379180799285515 4.220018036112562 6.98267675335585 0 0 0
5358 2 -1.2 5.357145658164113 7.219061018210387 2.9052455699114197 0 0 0
5359 2 -1.2 13.095550383861779 15.381209818892877 7.752777370700946 0 0 0
5360 2 -1.2 3.2538284993410658 16.3120818221312 4.15589992422418 0 0 0
5361 2 -1.2 1.6531115158178333 15.615377588424096 14.572201088230432 0 0 0
5362 2 -1.2 3.7607327935113024 12.27120333811549 11.400106691169144 0 0 0
5363 2 -1.2 9.996911596880386 10.313930863892496 11.21840740946339 0 0 0
5364 2 -1.2 9.1095558962431 12.794033808566262 8.668555747783746 0 0 0
5365 2 -1.2 22.076771293910586 2.1444683108324396 16.629598002091775 0 0 0
5366 2 -1.2 21.486901638649673 10.186588277199151 1.8668905052009248 0 0 0
5367 2 -1.2 20.805438446022087 10.39714965833904 11.476620339193785 0 0 0
5368 2 -1.2 17.583782246062825 2.0810691335281537 16.527293874348192 0 0 0
5369 2 -1.2 6.7281725772159735 9.762651173627482 1.9372760459960456 0 0 0
5370 2 -1.2 20.79360456880848 11.276613234036217 9.534532129288463 0 0 0
5371 2 -1.2 5.5351082165146375 1.664210644057096 2.386988000948061 0 0 0
5372 2 -1.2 6.700596311743394 12.421712487099633 10.569160207346743 0 0 0
5373 2 -1.2 8.705420455829463 12.71857553852608 5.660517912616437 0 0 0
5374 2 -1.2 20.376918394173906 0.03240281737612005 11.870317227751377 0 0 0
5375 2 -1.2 7.980457209111601 14.319000141881384 1.4431886639406437 0 0 0
5376 2 -1.2 17.56068613533015 13.44761185897371 5.9257641838792825 0 0 0
5377 2 -1.2 10.076273168519736 12.334279374712384 6.071384949794878 0 0 0
5378 2 -1.2 3.2649259221068707 3.055028342245469 4.601806595787952 0 0 0
5379 2 -1.2 2.176007352414963 13.982435466850463 4.9914360541824925 0 0 0
5380 2 -1.2 21.400043115774753 15.34593895331524 14.269653321664952 0 0 0
5381 2 -1.2 8.887087922703074 2.8416434102570154 14.127136951563553 0 0 0
5382 2 -1.2 3.1936303716831347 3.4193397990861665 1.260365971363758 0 0 0
5383 2 -1.2 21.205875334677348 14.90152782693115 3.185533962031358 0 0 0
5384 2 -1.2 0.523941384852748 15.939587410612884 3.147379885042734 0 0 0
5385 2 -1.2 9.941178615795927 5.87642799961551 11.44458528391244 0 0 0
5386 2 -1.2 8.871209437662145 2.333862533737942 3.4352958986737403 0 0 0
5387 2 -1.2 5.808411981625808 0.33751905797805354 12.492066802226166 0 0 0
5388 2 -1.2 2.100236577620047 5.722130218865796 15.190476985374442 0 0 0
5389 2 -1.2 7.920717171624507 9.125379620081716 12.381443157893882 0 0 0
5390 2 -1.2 18.97132528016867 15.849087794930817 13.701363053077548 0 0 0
5391 2 -1.2 2.151904206118212 8.423731466888546 6.295768821209085 0 0 0
5392 2 -1.2 4.402081482914525 3.760979280938905 16.413917533837378 0 0 0
5393 2 -1.2 19.44997880961797 3.130961757191067 15.59560485629763 0 0 0
5394 2 -1.2 19.006625541907002 9.826273116774 5.783605684126601 0 0 0
5395 2 -1.2 12.116718017302604 11.99401255092452 13.988097483688199 0 0 0
5396 2 -1.2 6.419242339806856 11.629536562408033 14.564254233096625 0 0 0
5397 2 -1.2 5.127229975058542 5.273974554957177 7.762394752591234 0 0 0
5398 2 -1.2 13.598260639721158 7.441608745891032 14.198063809634265 0 0 0
5399 2 -1.2 12.065281619996744 13.178713951976889 14.711233796229173 0 0 0
5400 2 -1.2 12.766086494086425 5.09139639626557 2.333329495760776 0 0 0
5401 2 -1.2 19.77552609510118 14.184886143370138 11.465511939380633 0 0 0
5402 2 -1.2 5.0643779136396025 14.367047112245293 9.88286795111834 0 0 0
5403 2 -1.2 20.832950585692643 6.660325990262177 1.5032123681767275 0 0 0
5404 2 -1.2 9.382505046909424 5.507337247990364 1.05089776770188 0 0 0
5405 2 -1.2 6.193174328857114 7.761796720571011 1.7685308274797624 0 0 0
5406 2 -1.2 8.396105215539343 8.114717506236943 6.755517673513464 0 0 0
5407 2 -1.2 4.977011066648354 10.98299436523031 2.3776724258426345 0 0 0
5408 2 -1.2 15.920212394896838 10.463887253424577 1.0972328148171921 0 0 0
5409 2 -1.2 1.2529484951913332 15.713899379149598 5.665955272086831 0 0 0
5410 2 -1.2 9.4738990128729 9.984699259602131 4.832616133037198 0 0 0
5411 2 -1.2 12.968466439970499 10.376702488981431 0.773441453797796 0 0 0
5412 2 -1.2 19.70012940815714 12.211875405033078 13.132724898913306 0 0 0
5413 2 -1.2 17.984113550406725 4.810891781119756 15.816293152779858 0 0 0
5414 2 -1.2 7.845828250641844 15.686391394632558 9.472614605307326 0 0 0
5415 2 -1.2 17.801588943581702 0.2818727459538728 9.511210834042105 0 0 0
5416 2 -1.2 11.625029988333834 5.412743069612959 9.378045016756325 0 0 0
5417 2 -1.2 14.826922076559743 14.50579419995272 11.138395494281568 0 0 0
5418 2 -1.2 8.075097559306808 6.767862634609538 10.928652771410157 0 0 0
5419 2 -1.2 18.606491111217384 10.405305976622108 15.378903119527932 0 0 0
5420 2 -1.2 17.528553930078914 6.1254726141214295 1.937225284904212 0 0 0
5421 2 -1.2 6.510117655787428 7.389948311389999 11.61737207141243 0 0 0
5422 2 -1.2 21.56983375851222 5.626661473699095 8.818780206734827 0 0 0
5423 2 -1.2 10.896504007562072 13.72477573069265 2.8854050529671484 0 0 0
5424 2 -1.2 18.781132771650363 15.626603603888638 3.476405096036066 0 0 0
5425 2 -1.2 17.52028160859209 0.2735239882475193 2.3745986665334677 0 0 0
5426 2 -1.2 11.676463346796076 4.176967823903308 15.93303246988972 0 0 0
5427 2 -1.2 20.151093924833972 0.25786681164423203 5.586348701433077 0 0 0
5428 2 -1.2 4.430152304681335 9.413925604599523 0.868815932795178 0 0 0
5429 2 -1.2 16.482992526810104 13.261503494258342 7.755005587278213 0 0 0
5430 2 -1.2 8.824151207783398 10.511944580663668 9.710980103173792 0 0 0
5431 2 -1.2 13.424256826361493 12.940606879852231 8.274430692362355 0 0 0
5432 2 -1.2 12.02507511423147 3.332764570856934 11.181049757571076 0 0 0
5433 2 -1.2 12.715016897608482 12.440919312124104 0.42587188568832324 0 0 0
5434 2 -1.2 14.763470494707382 13.522726832711086 3.1640210578141086 0 0 0
5435 2 -1.2 20.33788137807174 9.84206620410759 4.856107293439978 0 0 0
5436 2 -1.2 6.993459779841813 6.882552499769148 7.397316762952657 0 0 0
5437 2 -1.2 1.5971552727534097 7.425510626877314 9.99889475242603 0 0 0
5438 2 -1.2 9.885788124790455 7.195155892886421 0.6746800595557384 0 0 0
5439 2 -1.2 15.329893269858207 10.951768665634946 10.291173739266068 0 0 0
5440 2 -1.2 1.4705998705910905 11.30420413557193 7.121459128859555 0 0 0
5441 2 -1.2 16.744530540620165 13.959267695223941 15.153574136740481 0 0 0
5442 2 -1.2 7.207938075359928 15.733382987012009 0.17455610768260255 0 0 0
5443 2 -1.2 13.379989743335605 1.4390147812252 13.177441575751347 0 0 0
5444 2 -1.2 3.843732078019489 8.84011273387743 12.415396436695035 0 0 0
5445 2 -1.2 14.434418926396972 10.162800271388843 1.6047526608713563 0 0 0
5446 2 -1.2 5.269591209092476 0.6819801061284235 8.477203827400036 0 0 0
5447 2 -1.2 8.633527772635148 3.046876520210609 0.775092259079378 0 0 0
5448 2 -1.2 10.547941512805313 15.397104893539261 8.539379746114372 0 0 0
5449 2 -1.2 7.413064670743913 0.5911479231220355 13.441727975543387 0 0 0
5450 2 -1.2 3.554215151957702 4.034125429293942 12.438161127421894 0 0 0
5451 2 -1.2 14.200896911134194 14.196568543532058 8.040173556021934 0 0 0
5452 2 -1.2 16.969932269602754 6.628806515111511 4.479227923609325 0 0 0
5453 2 -1.2 17.47733322865259 10.935374662480559 1.1190799298150058 0 0 0
5454 2 -1.2 17.477113780731447 7.247113451872457 8.249143017227457 0 0 0
5455 2 -1.2 14.137332892068034 11.323768923970944 2.994461243157037 0 0 0
5456 2 -1.2 8.257729641968298 13.103228053266687 11.238840904024727 0 0 0
5457 2 -1.2 3.570680816005937 14.410623881632572 9.782358725659241 0 0 0
5458 2 -1.2 16.328660450539576 16.43099037744529 4.937610040493017 0 0 0
5459 2 -1.2 4.363209215548406 16.339574674447377 0.0949136910776211 0 0 0
5460 2 -1.2 19.835038188308456 15.54744715419338 4.903541099582801 0 0 0
5461 2 -1.2 4.374773658964245 10.931737259697805 6.575730661674717 0 0 0
5462 2 -1.2 14.422262838734225 5.626872828373462 12.371018218816898 0 0 0
5463 2 -1.2 4.988819733863387 9.67982634354975 8.300422262906308 0 0 0
5464 2 -1.2 5.210201661905317 1.379050055362157 4.207483519393775 0 0 0
5465 2 -1.2 1.653076631133464 15.02907069822569 15.903234158552934 0 0 0
5466 2 -1.2 18.543237798406675 12.754546392428121 10.908345729953584 0 0 0
5467 2 -1.2 4.065123184609483 0.6936003030220375 4.006415113607559 0 0 0
5468 2 -1.2 18.26583664881681 11.806976346630748 0.2231390928500776 0 0 0
5469 2 -1.2 17.663655831842895 12.7068393074201 8.181119619188973 0 0 0
5470 2 -1.2 2.92863765781059 11.248910949579393 10.075592374523884 0 0 0
5471 2 -1.2 0.8921746864403955 11.922112146586729 4.186629207008813 0 0 0
5472 2 -1.2 15.389278568866025 10.183299566217052 13.184004330643806 0 0 0
5473 2 -1.2 2.9957058976867326 6.426670420923329 3.292337283800359 0 0 0
5474 2 -1.2 16.649311476767725 11.783964765364377 13.010368558456392 0 0 0
5475 2 -1.2 19.588819264245075 5.955707119365314 12.079164887143385 0 0 0
5476 2 -1.2 6.530135448945513 10.876601411383929 12.174238272553898 0 0 0
5477 2 -1.2 8.836385592182173 16.36380526612436 7.795592196564379 0 0 0
5478 2 -1.2 12.203328347276464 2.6632837866768444 13.008512011058551 0 0 0
5479 2 -1.2 18.09522989051674 7.809799565685269 9.466597043766498 0 0 0
5480 2 -1.2 12.58018191794499 10.34571236178354 12.646208051521038 0 0 0
5481 2 -1.2 10.904567238002938 16.062531147137364 5.157901302754209 0 0 0
5482 2 -1.2 16.260475993789438 2.4929739047929154 14.000937156121545 0 0 0
5483 2 -1.2 3.411770690819015 7.227321928529345 8.565406697480428 0 0 0
5484 2 -1.2 12.219077340369013 0.994693486779437 3.603127603588667 0 0 0
5485 2 -1.2 2.119903818460979 3.317050524465972 13.43698927102724 0 0 0
17501 3 1.2 5.939824293119221 11.498421375399621 8.39712313512494 0 0 0
17502 3 1.2 5.317276277988583 3.039181423967819 4.6245683096884145 0 0 0
17503 3 1.2 3.1741875711492846 9.596587734602485 7.7091870195432195 0 0 0
17504 3 1.2 15.83662565230387 4.021569826721492 1.1875865970142887 0 0 0
17505 3 1.2 20.555717812845998 8.542663867822439 7.478252269533543 0 0 0
17506 3 1.2 19.418466094343916 6.22059055890211 2.4130199757086666 0 0 0
17507 3 1.2 1.878663636550815 10.812550557167011 1.1192002742239286 0 0 0
17508 3 1.2 20.409188494706378 9.672148053972677 12.432367944170931 0 0 0
17509 3 1.2 18.534613281146452 0.983243403111113 10.933009294828656 0 0 0
17510 3 1.2 21.40712963707049 1.2681437675649598 4.7389249563429265 0 0 0
17511 3 1.2 2.3022659401783616 5.115182355507728 2.561070669198705 0 0 0
17512 3 1.2 9.953667146748561 15.999729815801649 15.103594368810851 0 0 0
17513 3 1.2 0.5985615852356361 4.862188515653705 12.284279544213165 0 0 0
17514 3 1.2 16.153951098314614 10.071996802353766 7.051872524858016 0 0 0
17515 3 1.2 16.63744907163446 12.183959595299303 10.085065814454312 0 0 0
17516 3 1.2 3.815801229110674 5.539690234532899 12.083708175409846 0 0 0
17517 3 1.2 19.28803802708746 11.60188113195839 15.892789777078526 0 0 0
17518 3 1.2 4.968917230711067 8.13085237045153 11.572263321730683 0 0 0
18201 4 0.6 13.733421209772098 15.009013338083376 11.75157875465397 0 0 0
18202 4 0.6 6.7474376984241005 0.599146810700619 14.698072905622151 0 0 0
18203 4 0.6 4.846341814436314 12.310689389874861 9.137385595071546 0 0 0
18204 4 0.6 2.389861940785159 12.350619919026013 14.344996022621896 0 0 0
18205 4 0.6 6.759702936388162 6.9695633679367885 4.798433421543025 0 0 0
18206 4 0.6 2.3266958551896773 16.165888141168132 10.92643813660334 0 0 0
18207 4 0.6 4.778575043640356 5.392720749198059 5.815302311456649 0 0 0
18208 4 0.6 2.678376265513862 0.3058866184672457 13.569490356776281 0 0 0
18209 4 0.6 2.5915676664983494 6.3043075996672755 11.045258782512818 0 0 0
18210 4 0.6 8.154881096088292 15.880179289269336 3.5322739878508282 0 0 0
18211 4 0.6 6.047027129797926 15.313556291534535 2.738091186028211 0 0 0
18212 4 0.6 19.386571756127168 2.896282562682688 0.1806615476194339 0 0 0
18213 4 0.6 3.6932107116436645 9.465721515710344 5.726463051707531 0 0 0
18214 4 0.6 11.224548013162067 0.1505958180444212 0.6257004122705258 0 0 0
19041 5 0.6 14.616578127781453 8.550450067356499 5.159949235282654 0 0 0
19042 5 0.6 13.748854349180212 8.031870163909565 12.740300510615688 0 0 0
19043 5 0.6 1.4466325109902103 8.027667133102293 8.690441034378411 0 0 0
19044 5 0.6 14.220014648426936 2.5559827147269547 7.54233689212493 0 0 0
19045 5 0.6 6.902226624521129 5.107934961551985 13.93507905819403 0 0 0
19046 5 0.6 1.1181735792021732 14.628182603310645 3.815432381714607 0 0 0
19047 5 0.6 0.8518489525760966 0.07229610518867027 16.452012477409916 0 0 0
19048 5 0.6 19.4899837284205 9.588839055484504 10.658095686807505 0 0 0
19049 5 0.6 2.322405628175786 10.650522020274929 8.115232094092153 0 0 0
19050 5 0.6 19.050179054838036 9.33489263118263 4.371217746804179 0 0 0
19051 5 0.6 5.563265397255642 8.768592247008877 8.999201065536415 0 0 0
19052 5 0.6 8.70168754653306 16.5700482954426 11.417262265744078 0 0 0
19053 5 0.6 13.423970151777496 8.122467146621782 3.8227650183346453 0 0 0
19054 5 0.6 21.46711182078002 10.531515849861822 5.692905008628134 0 0 0
19055 5 0.6 1.7794205235783747 7.5955333690481215 4.180512448929942 0 0 0
19056 5 0.6 16.034522559647467 0.5509264712075452 3.3445786645784255 0 0 0
19057 5 0.6 17.933075303631806 12.68730915563659 12.890255101648485 0 0 0
19058 5 0.6 2.817285311182588 4.2834416171916025 7.495135123398229 0 0 0
19059 5 0.6 20.234976303498748 11.668939697148735 10.90794680420744 0 0 0
19060 5 0.6 12.049011806318711 6.09387267163215 3.5608262802791537 0 0 0
19061 5 0.6 11.27219329801369 1.8391467002175472 12.556194619808954 0 0 0
19062 5 0.6 20.773293775310304 2.865503418055862 15.59941221726263 0 0 0
19063 5 0.6 6.4748520306646 13.994900586303812 14.721260801835479 0 0 0
19064 5 0.6 20.5876529273827 12.552299473473775 7.8588232451943085 0 0 0
19065 5 0.6 11.407466770407554 11.304100969932021 5.387554218912804 0 0 0
19066 5 0.6 8.546551603100228 6.228939781737588 9.55744956841995 0 0 0
19067 5 0.6 13.079024811182252 3.9978270004535186 1.684781320701677 0 0 0
112 1 2.4 20.639231778235224 13.761814831151606 26.087252752379907 0 0 0
113 1 2.4 17.63199706602362 13.341796595500488 25.43157213227614 0 0 0
114 1 2.4 13.812658374874834 14.938461188035708 24.610220332042726 0 0 0
115 1 2.4 7.746740769874604 15.08508467931882 25.063504168588096 0 0 0