LAMMPS data file via write_data, version 29 Aug 2024, timestep = 0, units = metal

20300 atoms
5 atom types

0 66.1587996927488 xlo xhi
0 66.1587996927488 ylo yhi
0 66.1587996927488 zlo zhi

Masses

1 28.086
2 15.9994
3 40.078
4 22.99
5 39.1

Atoms # charge

1 1 2.4 6.597655131408816 4.641508540976362 8.609210438887576 0 0 0
2 1 2.4 7.778473250178792 3.011722883339188 6.544735328900155 0 0 0
3 1 2.4 13.844430813344166 2.8501604778766887 3.6761741233732756 0 0 0
4 1 2.4 14.454812480734308 6.920891927930175 12.260772870056547 0 0 0
5 1 2.4 6.3418491909226065 5.633046817937948 1.3755087595494666 0 0 0
6 1 2.4 2.4726042899491047 9.334094128355117 15.605943757042047 0 0 0
7 1 2.4 21.682495280853466 15.02947764378611 6.13353219823167 0 0 0
8 1 2.4 10.762338923127881 4.4719210351063055 3.1803860690310897 0 0 0
9 1 2.4 5.3187257693044145 11.285619795663811 0.13318661087885775 0 0 0
10 1 2.4 5.3654016739432775 1.8619527480543916 0.727581879976597 0 0 0
11 1 2.4 9.317601130022398 3.043319550035146 8.31951494587468 0 0 0
12 1 2.4 9.349465514691499 9.317635141603796 3.6149521985911774 0 0 0
13 1 2.4 11.986641865365723 5.944766781591922 13.907762164747552 0 0 0
14 1 2.4 18.698517653115605 11.687655357188723 8.947300499665651 0 0 0
15 1 2.4 5.263077523231504 2.22874374674045 12.615525370922493 0 0 0
16 1 2.4 2.192597106804756 0.5281452064428626 11.257325856851704 0 0 0
17 1 2.4 5.849824684423105 6.027127674402668 8.812494087222714 0 0 0
18 1 2.4 6.57407312134678 5.251463584834621 5.509680188575189 0 0 0
19 1 2.4 14.884218615928516 12.640639627372583 15.324403834588173 0 0 0
20 1 2.4 15.34814857035034 3.1730198505903426 4.9520765163484395 0 0 0
21 1 2.4 1.77999679023087 12.62859228777361 11.321166272902756 0 0 0
22 1 2.4 1.2675160427456196 0.008629360514025559 12.716062773729975 0 0 0
23 1 2.4 14.308943092867063 3.169678674831867 14.955735236409469 0 0 0
24 1 2.4 1.1101379552152366 1.3070999473187568 3.707316593742648 0 0 0
25 1 2.4 21.056301154834483 9.833952789807915 14.562905815133126 0 0 0
26 1 2.4 4.755959484066479 13.581019864772811 8.341927253289505 0 0 0
27 1 2.4 18.135229733732533 5.21595034898728 4.067922537059335 0 0 0
28 1 2.4 6.247870416343222 13.942975088189577 5.113795485992701 0 0 0
29 1 2.4 8.680192239574081 7.837648010482724 5.179923920274969 0 0 0
30 1 2.4 1.0749920382854758 6.038871343568815 7.7119426844001575 0 0 0
31 1 2.4 4.106597894941341 15.962740742125668 11.85089880970789 0 0 0
32 1 2.4 4.015720058519216 10.23133692869314 11.359359091473678 0 0 0
33 1 2.4 19.454080343540788 7.940252325434745 9.521853307429991 0 0 0
34 1 2.4 15.825174215914062 15.328282017480115 0.06986422448469896 0 0 0
35 1 2.4 8.873081868534255 7.952456999405276 16.16940965188321 0 0 0
36 1 2.4 10.203164957137153 0.9846309992165676 8.993280645650264 0 0 0
37 1 2.4 10.668225272911396 10.51499447258773 15.358121449944768 0 0 0
38 1 2.4 20.64721774052296 14.884176501950463 11.932829998227568 0 0 0
39 1 2.4 16.623473875515042 2.1143233031662603 8.156321309231526 0 0 0
40 1 2.4 4.4051887720238545 6.310835219018825 13.651618573054712 0 0 0
41 1 2.4 10.656433913593073 10.814017487761069 12.969160819315695 0 0 0
42 1 2.4 15.04958110703763 13.218440602775614 1.0818425992539047 0 0 0
43 1 2.4 20.40317786632217 15.15159175969478 7.5826878000078715 0 0 0
44 1 2.4 2.5241622736678044 15.804730482810605 2.524458211395077 0 0 0
45 1 2.4 16.072786507657725 8.943688710020401 3.7832473875984785 0 0 0
46 1 2.4 13.423183914812412 1.9451039788263547 8.915523916633314 0 0 0
47 1 2.4 7.472028378053834 12.979133113565881 14.72765270894197 0 0 0
48 1 2.4 8.656150272165785 0.7170999357345036 11.39707580952021 0 0 0
49 1 2.4 1.7011698054731879 10.959453320388265 9.433611152913066 0 0 0
50 1 2.4 14.592766227567825 9.951525712640523 5.847029080308631 0 0 0
51 1 2.4 5.976397644714829 16.25728112945504 0.2812116983703444 0 0 0
52 1 2.4 18.099952175962816 7.735234148063494 4.0389302517552625 0 0 0
53 1 2.4 19.170668705844314 8.074435438679455 15.338248057789157 0 0 0
54 1 2.4 19.95820936852973 12.510414642720656 9.873476650384545 0 0 0
55 1 2.4 14.289116189367544 0.7329100221787719 12.48199990734092 0 0 0
56 1 2.4 2.142045453073705 10.970896954417423 3.2903692027289235 0 0 0
57 1 2.4 6.605422249042255 2.8658552206970853 2.8225179347865734 0 0 0
58 1 2.4 0.24066727469863242 9.208104602237771 15.181568470788697 0 0 0
59 1 2.4 20.9652214054554 0.7089979087701062 7.5439080043895075 0 0 0
60 1 2.4 20.76082008849568 5.5936477897234775 0.7840384864519547 0 0 0
61 1 2.4 16.686447797237832 1.976230614093518 2.7904853098584033 0 0 0
62 1 2.4 12.293780955765339 7.645083093540609 10.52254981883482 0 0 0
63 1 2.4 10.120741925413652 5.035530370095105 15.054123162726261 0 0 0
64 1 2.4 12.340855941948975 4.928779568933755 7.1809997481189844 0 0 0
65 1 2.4 12.006887043539734 15.411477888452664 9.008074112371204 0 0 0
66 1 2.4 5.771045266587233 5.157445961881918 13.166683848474323 0 0 0
67 1 2.4 14.742347652984188 9.932154361001633 11.066720549211732 0 0 0
68 1 2.4 16.612186805667648 10.88893945621431 15.165490450718146 0 0 0
69 1 2.4 17.687086760061096 15.38015682647336 11.8653829682067 0 0 0
70 1 2.4 9.48736895272753 11.50272896699168 10.35304601719181 0 0 0
71 1 2.4 15.691315660649451 14.966733238622574 10.129109698665314 0 0 0
72 1 2.4 0.9448700742206831 2.319411167310267 14.81046995461073 0 0 0
73 1 2.4 20.036227376733123 0.583084662250172 8.401563911817984 0 0 0
74 1 2.4 17.5919938289226 4.9644558077495535 11.362348290495312 0 0 0
75 1 2.4 16.923382177647667 14.604380597270994 6.677838235551967 0 0 0
76 1 2.4 10.506704242044746 8.341816099498125 10.406635330286468 0 0 0
77 1 2.4 8.25150749495054 14.242311632225132 7.994314442641464 0 0 0
78 1 2.4 8.463606119540575 6.4087117085033825 4.691785021297044 0 0 0
79 1 2.4 3.389327069494868 1.6935215435290902 14.732714211436717 0 0 0
80 1 2.4 5.27480233815144 0.811309027870529 6.958094713729534 0 0 0
81 1 2.4 9.318352219111604 15.666873872314179 1.1263948441640474 0 0 0
82 1 2.4 17.19830250364918 4.074321212270567 2.758932636403601 0 0 0
83 1 2.4 11.715223407521755 9.171924597680109 2.5334291048723077 0 0 0
84 1 2.4 11.211387609192004 9.530022741405347 0.6381586548110729 0 0 0
85 1 2.4 15.143822208261582 9.31743624779084 0.27214388420916646 0 0 0
86 1 2.4 3.389668540842889 7.432630489720263 12.406820818726134 0 0 0
87 1 2.4 4.708291451739807 6.329996863380019 4.907376887918906 0 0 0
88 1 2.4 3.790858095088116 2.027900028871925 11.133943484809512 0 0 0
89 1 2.4 13.09700696495564 11.069482234167582 6.24317364492834 0 0 0
90 1 2.4 22.012806301460056 9.227626787846342 12.49694353026452 0 0 0
91 1 2.4 20.733039157702994 1.7911418062722648 1.4664778172510478 0 0 0
92 1 2.4 2.2405253400521588 12.152365082567758 12.585291200783516 0 0 0
93 1 2.4 20.61569830845976 14.407479357738595 5.298690051947364 0 0 0
94 1 2.4 14.852201949332922 3.8069216972056847 7.373662047858924 0 0 0
95 1 2.4 17.96208271870059 6.121255188035485 3.0024230880114096 0 0 0
96 1 2.4 13.108436920414018 4.696344544890253 4.014732521162593 0 0 0
97 1 2.4 6.983180165081247 0.5983795841435913 0.8281174035209753 0 0 0
98 1 2.4 0.839203638677128 12.671220690995744 0.02994260708974586 0 0 0
99 1 2.4 6.755055215559777 3.712735156226891 12.191660443235666 0 0 0
100 1 2.4 7.63306218685544 6.9635702394511005 1.8083579820159765 0 0 0
101 1 2.4 3.858556545866041 15.136167476723198 12.981962667646568 0 0 0
102 1 2.4 1.5829274336697665 8.423901202746666 0.6761720807746763 0 0 0
103 1 2.4 15.62362309412157 1.9573623812370642 16.466094155182294 0 0 0
104 1 2.4 7.842144686588567 14.596759538430497 10.908301688806013 0 0 0
105 1 2.4 11.188029046593625 13.89545930698181 0.4216570400019989 0 0 0
106 1 2.4 12.538234668347396 14.333049509757501 11.373429195938074 0 0 0
107 1 2.4 13.313291632702933 7.431909961762169 0.29690742703368017 0 0 0
108 1 2.4 19.906673134970873 6.405333224751182 14.068408290813368 0 0 0
109 1 2.4 14.328931120071935 8.314453443379932 13.634071801042902 0 0 0
110 1 2.4 9.802226700418613 10.612918991107977 7.2055119009940345 0 0 0
111 1 2.4 19.627091281439547 4.747899108966258 10.427894940844784 0 0 0
5251 2 -1.2 21.162572713097074 9.652440805015166 7.195763269860652 0 0 0
5252 2 -1.2 21.209769728152015 8.98707652038154 5.255379507026575 0 0 0
5253 2 -1.2 15.388262365503229 15.777578057699166 9.285247212718867 0 0 0
5254 2 -1.2 2.8500021884697837 1.0158040615246429 3.648541315482184 0 0 0
5255 2 -1.2 2.259984524135403 8.408873505904918 12.740870032527317 0 0 0
5256 2 -1.2 5.578481920832301 10.526478803445718 9.898871101882474 0 0 0
5257 2 -1.2 20.977954984162743 16.245856164826545 6.738230265424917 0 0 0
5258 2 -1.2 17.37975043945848 10.364992492735077 8.309234390860484 0 0 0
5259 2 -1.2 17.974289795663285 12.80919862178886 3.4670362007824176 0 0 0
5260 2 -1.2 3.5042232130947517 14.147815937062164 7.616358464594494 0 0 0
5261 2 -1.2 7.448077262233891 7.38552768428119 14.655566117204275 0 0 0
5262 2 -1.2 11.730623475726144 3.3656721378629326 1.0778837620865094 0 0 0
5263 2 -1.2 21.894205113634403 0.6614537845778387 2.375409017935446 0 0 0
5264 2 -1.2 18.855708800178665 7.24727633611044 6.623146657628651 0 0 0
5265 2 -1.2 9.561525968675236 0.8425018378449778 1.9452544122973385 0 0 0
5266 2 -1.2 0.9532517725038587 10.873014827143558 12.155448429590075 0 0 0
5267 2 -1.2 16.107766648935762 1.425725935255845 12.69030506991659 0 0 0
5268 2 -1.2 10.431857197654875 7.404735201146644 6.682303611144494 0 0 0
5269 2 -1.2 20.89066761853231 4.700695254625929 10.978311355931819 0 0 0
5270 2 -1.2 15.659415631596588 8.093342489101634 2.315046039621606 0 0 0
5271 2 -1.2 14.777961537234091 13.06550971435857 10.965588991187909 0 0 0
5272 2 -1.2 12.825679882429085 15.832385010053947 4.202499741018938 0 0 0
5273 2 -1.2 15.864013655030242 6.514738315603209 0.3933788438693253 0 0 0
5274 2 -1.2 18.537271148699894 14.12844304504368 12.810160773689804 0 0 0
5275 2 -1.2 14.08490249064217 8.770859567721123 10.031039244582493 0 0 0
5276 2 -1.2 3.420793512500093 1.2796315903529392 5.158238918488443 0 0 0
5277 2 -1.2 16.2542946106939 16.24559057257724 2.2744213313655437 0 0 0
5278 2 -1.2 6.499866905674897 15.084790949720471 9.561069338548894 0 0 0
5279 2 -1.2 7.704386937654374 14.86026244766351 6.962117753918337 0 0 0
5280 2 -1.2 0.039890378496821255 8.849594468586776 10.152524238658076 0 0 0
5281 2 -1.2 17.95478332192656 15.75789299235251 9.232352395167192 0 0 0
5282 2 -1.2 13.648309591229715 14.58076503774144 6.723927378796532 0 0 0
5283 2 -1.2 7.44845289920127 13.698858195009175 4.086752753347451 0 0 0
5284 2 -1.2 19.977359860542673 3.578735440576441 9.457629059592131 0 0 0
5285 2 -1.2 11.727163968007389 11.380525601489436 7.40387249615218 0 0 0
5286 2 -1.2 5.239622224794731 4.9683410763876195 10.50325859774232 0 0 0
5287 2 -1.2 0.6425711645759927 15.809213110654566 11.705184692103549 0 0 0
5288 2 -1.2 17.39106354172099 2.0279031404387013 11.186239587621252 0 0 0
5289 2 -1.2 21.9379463486892 8.073594730305567 1.2084624178928272 0 0 0
5290 2 -1.2 3.763841593071904 11.073148491635218 1.7031632107035837 0 0 0
5291 2 -1.2 15.332634914554813 7.070205666180988 7.742383327019686 0 0 0
5292 2 -1.2 14.316979776929154 5.9246283209160655 6.234652049370591 0 0 0
5293 2 -1.2 19.312085010348177 3.1414762961827267 4.069955129546559 0 0 0
5294 2 -1.2 6.11401817663494 13.687571864543981 12.873795703103239 0 0 0
5295 2 -1.2 12.754493334487172 10.25846821979657 4.243370817586993 0 0 0
5296 2 -1.2 3.1498470269632053 12.439227971548377 4.297488727342545 0 0 0
5297 2 -1.2 19.068797426732672 16.05263942085615 1.125599299719808 0 0 0
5298 2 -1.2 7.377009415943361 3.8066295488122095 2.463523998713229 0 0 0
5299 2 -1.2 8.070503897038433 15.419627389916096 13.659145822778038 0 0 0
5300 2 -1.2 10.888862067543593 13.86481906197471 14.721456747685087 0 0 0
5301 2 -1.2 19.441930414660966 2.212796720550426 9.229054966189139 0 0 0
5302 2 -1.2 9.289972173080288 1.795038073220621 0.7922367255256872 0 0 0
5303 2 -1.2 21.04860193713347 12.750800274414633 14.348007273365758 0 0 0
5304 2 -1.2 16.163587787214112 13.3884012810057 12.78257482414591 0 0 0
5305 2 -1.2 5.4838831434670166 8.416020251061354 0.5386164912581771 0 0 0
5306 2 -1.2 5.188494222635425 5.724404790678993 15.176563685070539 0 0 0
5307 2 -1.2 7.644598274467728 2.374195660930591 9.350258532913205 0 0 0
5308 2 -1.2 2.85070389298926 12.809351920365886 6.043525384853806 0 0 0
5309 2 -1.2 8.991553233167867 14.336691614073128 6.4274767359271525 0 0 0
5310 2 -1.2 16.79743642911834 14.915775232755076 13.742301089344533 0 0 0
5311 2 -1.2 15.297641217936365 14.36034383463698 6.99754959610802 0 0 0
5312 2 -1.2 1.24392161722407 0.40991777632148635 8.97289858934568 0 0 0
5313 2 -1.2 10.60497586970232 6.0230698216350795 6.7709623151107685 0 0 0
5314 2 -1.2 6.428158538742296 0.7406623829757171 10.458328436103002 0 0 0
5315 2 -1.2 8.188189236773688 8.593141537864211 0.2700976131511628 0 0 0
5316 2 -1.2 18.72167454921776 3.9328099895762243 6.096601751544229 0 0 0
5317 2 -1.2 0.07543469920433457 10.813795365023857 9.23594397503219 0 0 0
5318 2 -1.2 2.055033045200499 4.046951069907554 5.860547790494169 0 0 0
5319 2 -1.2 12.4201353978081 14.202600338259712 2.154593693308502 0 0 0
5320 2 -1.2 10.801829727158461 6.605867449552022 10.348340188344924 0 0 0
5321 2 -1.2 14.246638958998597 14.564895831528418 4.645377327552792 0 0 0
5322 2 -1.2 5.491808180816258 9.294523594276841 12.13197443094505 0 0 0
5323 2 -1.2 0.6736078416749657 8.172247571104645 5.296765409261968 0 0 0
5324 2 -1.2 15.85996790964625 4.676695339580503 4.5645373439363 0 0 0
5325 2 -1.2 11.70366886616195 13.45114704170328 8.809779784343121 0 0 0
5326 2 -1.2 2.5751230830261616 12.238657362981565 7.406054875150959 0 0 0
5327 2 -1.2 15.237837582260081 1.6226344145723284 14.191132304617813 0 0 0
5328 2 -1.2 14.75788709473409 6.468353080593412 14.702330347208962 0 0 0
5329 2 -1.2 3.1377788306245527 8.085451186065463 2.0035152961967495 0 0 0
5330 2 -1.2 8.609003843176657 2.232664228455997 12.348261871375612 0 0 0
5331 2 -1.2 6.842413068960353 16.442584019232033 5.203294621064533 0 0 0
5332 2 -1.2 1.6773601273074101 7.742990544654971 2.0830883792137582 0 0 0
5333 2 -1.2 16.2424819941372 16.18734318240306 15.692530065112429 0 0 0
5334 2 -1.2 8.644303428374547 0.08359541463119868 15.653340158831412 0 0 0
5335 2 -1.2 19.843638275831413 5.519250751827701 7.410216734348619 0 0 0
5336 2 -1.2 18.47008937204482 9.703917579921761 12.301523119249381 0 0 0
5337 2 -1.2 16.415021452650354 5.070835931965812 13.005504288955693 0 0 0
5338 2 -1.2 18.698432162048235 10.250806987856306 7.798644983053843 0 0 0
5339 2 -1.2 7.278609690318891 3.9724332970593323 10.457533692656153 0 0 0
5340 2 -1.2 11.250693413633545 8.554681062935328 15.452892410940882 0 0 0
5341 2 -1.2 0.10245748596928335 1.8741746742763554 7.665096814277081 0 0 0
5342 2 -1.2 7.187962325491365 2.1145655740685374 12.22816836380094 0 0 0
5343 2 -1.2 14.844950550786985 14.250265721133486 9.361087339831894 0 0 0
5344 2 -1.2 12.010705613741454 13.431387576022312 7.506438548075129 0 0 0
5345 2 -1.2 16.320325015218916 1.3190046477674822 5.313217957226594 0 0 0
5346 2 -1.2 6.8299472082261525 5.405261737769723 10.202048551623836 0 0 0
5347 2 -1.2 9.25481898555885 6.404612635177904 1.9574593327286034 0 0 0
5348 2 -1.2 4.3778940466456815 10.679983637298854 9.661425654331504 0 0 0
5349 2 -1.2 20.123600942005545 13.577002955294786 6.988529348868653 0 0 0
5350 2 -1.2 4.527181721673793 5.723549510314164 0.8018665933925038 0 0 0
5351 2 -1.2 8.380959424700272 6.700505075290625 13.111723351081782 0 0 0
5352 2 -1.2 1.9603197868239133 0.012410160608142975 10.10117026281258 0 0 0
5353 2 -1.2 6.609378344333977 3.1971490959063384 13.539504385806113 0 0 0
5354 2 -1.2 18.316818645082122 13.875997535060849 4.12165482818775 0 0 0
5355 2 -1.2 17.58074724025089 14.419439080546358 7.829352203765614 0 0 0
5356 2 -1.2 6.3378271057691515 4.1926613365629155 6.937410835447635 0 0 0
5357 2 -1.2 5.32241741222773 7.172262715071457 2.886412017662619 0 0 0
5358 2 -1.2 13.010657135960265 15.281499549381058 7.702519196591118 0 0 0
5359 2 -1.2 1.6423950509417855 15.514149302339726 14.477735300753615 0 0 0
5360 2 -1.2 3.7363534576321213 12.191654004448973 11.326204330820108 0 0 0
5361 2 -1.2 9.93210559258374 10.247069749697058 11.145682933335577 0 0 0
5362 2 -1.2 9.050502266246342 12.711095172775174 8.612360946460116 0 0 0
5363 2 -1.2 21.933656360717052 2.130566575159475 16.521794928199302 0 0 0
5364 2 -1.2 21.34761059596901 10.120552674376944 1.854788196109868 0 0 0
5365 2 -1.2 20.670565058350313 10.329749069777124 11.402221971277351 0 0 0
5366 2 -1.2 17.46979357498713 2.067578389521662 16.420153997451894 0 0 0
5367 2 -1.2 6.68455650872101 9.699363786540637 1.9247174554209538 0 0 0
5368 2 -1.2 20.65880789545894 11.203511432683428 9.472723547293 0 0 0
5369 2 -1.2 5.499226310049266 1.6534222279443695 2.371514106521131 0 0 0
5370 2 -1.2 6.657159009216437 12.34118746244483 10.500644542766596 0 0 0
5371 2 -1.2 8.648986675256609 12.636126068706407 5.623823024939254 0 0 0
5372 2 -1.2 20.244822931669535 0.032192762790586305 11.793366679393598 0 0 0
5373 2 -1.2 7.928723077107847 14.226175755497092 1.433833045472897 0 0 0
5374 2 -1.2 17.446847187160063 13.360436336466917 5.887349810055949 0 0 0
5375 2 -1.2 10.010952694698897 12.254321144172156 6.032026574427652 0 0 0
5376 2 -1.2 3.2437607051010193 3.0352238078194853 4.571974912759763 0 0 0
5377 2 -1.2 2.161901161671599 13.891792895476216 4.959078558245975 0 0 0
5378 2 -1.2 21.261315142373242 15.24645733080545 14.177148831101684 0 0 0
5379 2 -1.2 8.829476464151906 2.823222165528582 14.035556337980053 0 0 0
5380 2 -1.2 3.172927335392029 3.3971735782924948 1.2521955197433763 0 0 0
5381 2 -1.2 21.068406073822615 14.804927145108573 3.1648834115458526 0 0 0
5382 2 -1.2 0.5205448811116773 15.836257401118623 3.126976672272812 0 0 0
5383 2 -1.2 9.876733906262832 5.8383334526645445 11.370394586526059 0 0 0
5384 2 -1.2 8.813700913018097 2.3187330305985525 3.413026240828694 0 0 0
5385 2 -1.2 5.770758355484371 0.3353310560827131 12.411085698510925 0 0 0
5386 2 -1.2 2.0866215786922093 5.685035923096941 15.092003161009579 0 0 0
5387 2 -1.2 7.86937031053823 9.06622341117295 12.301179183294014 0 0 0
5388 2 -1.2 18.848341719125347 15.746344458473114 13.612542562440748 0 0 0
5389 2 -1.2 2.1379542664917395 8.369123764064874 6.254955854391886 0 0 0
5390 2 -1.2 4.373544538406087 3.736598347179705 16.30751263069163 0 0 0
5391 2 -1.2 19.323892327999076 3.110664976618107 15.494504748976345 0 0 0
5392 2 -1.2 18.883413143298025 9.76257329391827 5.746112867351812 0 0 0
5393 2 -1.2 12.038170150565882 11.916260134953193 13.897418207709338 0 0 0
5394 2 -1.2 6.377628943247007 11.55414689939785 14.469839961922913 0 0 0
5395 2 -1.2 5.093992181108536 5.239785474223923 7.712074232817341 0 0 0
5396 2 -1.2 13.51010852104886 7.393367754292121 14.106023405421995 0 0 0
5397 2 -1.2 11.987067194978748 13.093281587719252 14.61586671496931 0 0 0
5398 2 -1.2 12.683329029626574 5.0583908971637 2.31820344809472 0 0 0
5399 2 -1.2 19.647329219829476 14.092931164730382 11.391185582804807 0 0 0
5400 2 -1.2 5.0315475646212535 14.273911256449907 9.818801246446949 0 0 0
5401 2 -1.2 20.69789884775495 6.617149744222682 1.4934676398927214 0 0 0
5402 2 -1.2 9.321681996061095 5.471635369675494 1.0440852151861335 0 0 0
5403 2 -1.2 6.153026441354434 7.711480077600998 1.7570661450832343 0 0 0
5404 2 -1.2 8.341676602722247 8.062113018092889 6.71172433762837 0 0 0
5405 2 -1.2 4.9447470821723565 10.911795978295963 2.3622589205863456 0 0 0
5406 2 -1.2 15.817007985928258 10.39605403156067 1.0901198906083143 0 0 0
5407 2 -1.2 1.2448261281206687 15.61203241545653 5.62922513616945 0 0 0
5408 2 -1.2 9.412483491270628 9.919972423033885 4.8012882035215085 0 0 0
5409 2 -1.2 12.884397026763736 10.309434451291091 0.7684275402813792 0 0 0
5410 2 -1.2 19.572421299638115 12.132710670774987 13.04759066340689 0 0 0
5411 2 -1.2 17.867529690609196 4.7797046819425235 15.713762410951961 0 0 0
5412 2 -1.2 7.7949668646633485 15.584702754269204 9.411207410008773 0 0 0
5413 2 -1.2 17.68618831826009 0.2800454769810138 9.449553434733945 0 0 0
5414 2 -1.2 11.549669539652093 5.377654407757088 9.3172508785107 0 0 0
5415 2 -1.2 14.73080503416243 14.411758901937107 11.066189703596633 0 0 0
5416 2 -1.2 8.02274991153051 6.72398927124855 10.857806659428777 0 0 0
5417 2 -1.2 18.485872625076592 10.337852513890747 15.279207803431225 0 0 0
5418 2 -1.2 17.414923282223516 6.085763609925213 1.924667023393102 0 0 0
5419 2 -1.2 6.467915150675322 7.342042213853898 11.54206126596221 0 0 0
5420 2 -1.2 21.430005099862456 5.59018606385811 8.761611559955238 0 0 0
5421 2 -1.2 10.825866303238184 13.635803464972973 2.866700118903462 0 0 0
5422 2 -1.2 18.659382153041786 15.525302544008143 3.4538689436046592 0 0 0
5423 2 -1.2 17.4067045869088 0.2717508409523951 2.3592050872370183 0 0 0
5424 2 -1.2 11.600769476095227 4.149890201767758 15.829744953470703 0 0 0
5425 2 -1.2 20.020462392603317 0.2561951636015912 5.550134623271117 0 0 0
5426 2 -1.2 4.40143338819301 9.352898866764775 0.8631837444409979 0 0 0
5427 2 -1.2 16.376139837940936 13.175534438305395 7.704732968525988 0 0 0
5428 2 -1.2 8.766947742938884 10.443799822249161 9.64802767909841 0 0 0
5429 2 -1.2 13.337232705247935 12.856718069100058 8.220790847115662 0 0 0
5430 2 -1.2 11.947121332009013 3.3111595828558333 11.108567456251508 0 0 0
5431 2 -1.2 12.632590497043385 12.360269777257022 0.42311112752953844 0 0 0
5432 2 -1.2 14.667764783694397 13.435064369686357 3.143509966935665 0 0 0
5433 2 -1.2 20.20603897702627 9.778264000944136 4.824627080068696 0 0 0
5434 2 -1.2 6.9481239598589415 6.837935647599413 7.349362898673897 0 0 0
5435 2 -1.2 1.5868015499595853 7.377373992985267 9.934075892120251 0 0 0
5436 2 -1.2 9.82170248979386 7.148512557173126 0.6703063769023804 0 0 0
5437 2 -1.2 15.230515665136409 10.880772702499444 10.22446015046405 0 0 0
5438 2 -1.2 1.4610665561660723 11.230923473371352 7.075293539974356 0 0 0
5439 2 -1.2 16.63598240476395 13.868775311304391 15.055339538875117 0 0 0
5440 2 -1.2 7.161211877838336 15.63138971883354 0.1734245298192938 0 0 0
5441 2 -1.2 13.293252588125965 1.4296862203800569 13.092017459803035 0 0 0
5442 2 -1.2 3.818814690769509 8.782805796803657 12.334912356484493 0 0 0
5443 2 -1.2 14.340846325909482 10.096918876753014 1.5943496872301834 0 0 0
5444 2 -1.2 5.235430543848164 0.6775591001747671 8.422249484517433 0 0 0
5445 2 -1.2 8.57756004375144 3.02712483080668 0.7700676440484849 0 0 0
5446 2 -1.2 10.479563400587843 15.297291582576506 8.484022341464515 0 0 0
5447 2 -1.2 7.365008719038443 0.5873157461067106 13.354590595914138 0 0 0
5448 2 -1.2 3.531174587861802 4.007973797625457 12.357529472769912 0 0 0
5449 2 -1.2 14.108838141051006 14.104537832535588 7.988052306677294 0 0 0
5450 2 -1.2 16.85992294393053 6.585834597301013 4.450190869390133 0 0 0
5451 2 -1.2 17.364034624245264 10.864484975151196 1.1118253794434179 0 0 0
5452 2 -1.2 17.36381659891777 7.200133295956416 8.195667101927285 0 0 0
5453 2 -1.2 14.045686182254938 11.250361431023814 2.975049341160151 0 0 0
5454 2 -1.2 8.204198062992955 13.018285034086151 11.165983965673604 0 0 0
5455 2 -1.2 3.547533511554806 14.317205534962202 9.718943582345958 0 0 0
5456 2 -1.2 16.22280823517675 16.324474797840573 4.905601477208412 0 0 0
5457 2 -1.2 4.334924264498301 16.233651706509157 0.09429840334478706 0 0 0
5458 2 -1.2 19.706455519791433 15.446659234113048 4.871753391700349 0 0 0
5459 2 -1.2 4.346413740224126 10.860871152204883 6.533102813525389 0 0 0
5460 2 -1.2 14.328769041331233 5.590396048404132 12.290821824953346 0 0 0
5461 2 -1.2 4.95647919849156 9.617075876914972 8.246613924638943 0 0 0
5462 2 -1.2 5.176425995489182 1.3701102219999237 4.1802080761337805 0 0 0
5463 2 -1.2 1.6423603924009589 14.931643206664422 15.800139812742039 0 0 0
5464 2 -1.2 18.42302935835082 12.671863737860345 10.837631260450298 0 0 0
5465 2 -1.2 4.0387706068143165 0.6891039679507314 3.9804431169013346 0 0 0
5466 2 -1.2 18.14742649015196 11.730436412028453 0.2216925708047587 0 0 0
5467 2 -1.2 17.54914937205885 12.624465918921755 8.128084672540252 0 0 0
5468 2 -1.2 2.909652463953858 11.175988731125594 10.010276314019919 0 0 0
5469 2 -1.2 0.8863910725710025 11.844825832357655 4.159488953966809 0 0 0
5470 2 -1.2 15.289515992855307 10.117285282800939 13.098537670964099 0 0 0
5471 2 -1.2 2.9762859270892577 6.385008871066127 3.2709943698321537 0 0 0
5472 2 -1.2 16.541380608254666 11.707574005696758 12.926027510470794 0 0 0
5473 2 -1.2 19.461832735145325 5.917098637392983 12.000860462422818 0 0 0
5474 2 -1.2 6.487803176437062 10.806092727680152 12.095317524865612 0 0 0
5475 2 -1.2 8.77910281668654 16.257725220891505 7.745056470956572 0 0 0
5476 2 -1.2 12.124219020196513 2.646018776493457 12.924182998331792 0 0 0
5477 2 -1.2 17.97792570765295 7.7591717393506165 9.405228857927545 0 0 0
5478 2 -1.2 12.498629598958662 10.278645220769826 12.564227711354892 0 0 0
5479 2 -1.2 10.833877262961085 15.958404142267057 5.1244646787780335 0 0 0
5480 2 -1.2 16.15506579115767 2.4768129458787795 13.910174645649828 0 0 0
5481 2 -1.2 3.38965353754566 7.180470073192375 8.509880570450091 0 0 0
5482 2 -1.2 12.139865918826773 0.9882452842767573 3.5797699595106303 0 0 0
5483 2 -1.2 2.1061613246281308 3.2955474043815842 13.349882610535824 0 0 0
5484 2 -1.2 0.28743165874127746 1.271510893987883 0.9912944964873075 0 0 0
5485 2 -1.2 16.639447088158136 5.940909424632068 15.235963433217721 0 0 0
5486 2 -1.2 15.246388136954165 13.0142077725357 8.798248779983489 0 0 0
5487 2 -1.2 18.005713446923433 11.676107809152267 13.344059729216193 0 0 0
17501 3 1.2 5.901318773196316 11.423881680030972 8.342687923539776 0 0 0
17502 3 1.2 5.282806489396544 3.019479618814175 4.594589071516365 0 0 0
17503 3 1.2 3.153610574805889 9.534376870783717 7.659211424353595 0 0 0
17504 3 1.2 15.733963102963347 3.9954995880338657 1.1798879451493705 0 0 0
17505 3 1.2 20.42246326477981 8.487285173516923 7.429773732535975 0 0 0
17506 3 1.2 19.29258389713243 6.180264942877489 2.397377326336588 0 0 0
17507 3 1.2 1.8664850069288168 10.742457089692104 1.1119449437073723 0 0 0
17508 3 1.2 20.27688383796702 9.60944736263725 12.351773844423281 0 0 0
17509 3 1.2 18.414460750407915 0.9768694269496602 10.86213494123759 0 0 0
17510 3 1.2 21.268355724568178 1.2599228955833346 4.7082043894852506 0 0 0
17511 3 1.2 2.287341265195962 5.082022661486567 2.5444682660281197 0 0 0
17512 3 1.2 9.889141479033258 15.896009927000035 15.00568376991495 0 0 0
17513 3 1.2 16.049231454238555 10.006704050515006 7.0061580382671815 0 0 0
17514 3 1.2 16.529595102378792 12.104975828139702 10.019688341404793 0 0 0
17515 3 1.2 3.791064906452178 5.5037786246659826 12.005374298357319 0 0 0
17516 3 1.2 19.16300134319327 11.526670748111293 15.789763138041282 0 0 0
17517 3 1.2 4.936705715356303 8.07814328639608 11.497244938374765 0 0 0
18201 4 0.6 13.644392898847967 14.911715870415486 11.675397940620952 0 0 0
18202 4 0.6 6.703696741805872 0.5952627800765309 14.602791141184882 0 0 0
18203 4 0.6 4.8149249067838165 12.230884083829757 9.07815155619907 0 0 0
18204 4 0.6 2.3743694157486024 12.270555759232062 14.252003115275642 0 0 0
18205 4 0.6 6.715882469107416 6.92438245889392 4.767327084958962 0 0 0
18206 4 0.6 4.747597441026902 5.357761884086938 5.777604018045697 0 0 0
18207 4 0.6 2.661013416789153 0.303903677103949 13.481524744412665 0 0 0
18208 4 0.6 2.5747675634162586 6.263439279343336 10.973656760110174 0 0 0
18209 4 0.6 8.102016243355509 15.777234399012125 3.509375659600629 0 0 0
18210 4 0.6 6.007826656495961 15.214284592949564 2.7203412292093745 0 0 0
18211 4 0.6 19.260896317232934 2.8775071140471224 0.17949039061581318 0 0 0
18212 4 0.6 3.6692690945824626 9.404359005571772 5.689340667905583 0 0 0
18213 4 0.6 11.151783729941249 0.1496195652150685 0.6216442452020213 0 0 0
18214 4 0.6 6.266873370798819 2.5316321596551137 9.03350488601992 0 0 0
18215 4 0.6 21.82357670683396 4.468215159075557 7.054527312999453 0 0 0
18216 4 0.6 12.687363098933256 6.700194041843348 7.884184202692565 0 0 0
18217 4 0.6 6.763319321264877 10.289960356333395 4.2613120500048005 0 0 0
18218 4 0.6 21.831868231295807 11.506267403760745 3.6647531021165323 0 0 0
18219 4 0.6 1.1418897073285472 5.688400173741708 5.4761640548692645 0 0 0
18220 4 0.6 4.523031785014177 2.1343637648924547 14.182363077636806 0 0 0
18221 4 0.6 1.7878264780833488 11.904556638886815 15.673158898319091 0 0 0
18222 4 0.6 10.943644928361548 8.377165130880927 9.088608546291768 0 0 0
18223 4 0.6 0.8780510877671864 3.992300620119352 13.57363389866569 0 0 0
18224 4 0.6 2.653811187159802 11.573629682096447 11.122970313515435 0 0 0
18225 4 0.6 12.793828868254847 9.782787325616926 14.689345162899013 0 0 0
19741 5 0.6 14.521824661596272 8.495020898214273 5.126499335373912 0 0 0
19742 5 0.6 13.659725991347681 7.979802742155546 12.65771020643723 0 0 0
19743 5 0.6 1.437254567430906 7.97562695792637 8.634104359440782 0 0 0
19744 5 0.6 14.127831945651822 2.539413294742843 7.493442919991544 0 0 0
19745 5 0.6 6.8574822328207246 5.074822249505134 13.844743479593813 0 0 0
19746 5 0.6 1.110924904341351 14.533353909923171 3.79069845014717 0 0 0
19747 5 0.6 0.8463267544106186 0.0718274382750857 16.34536061988702 0 0 0
19748 5 0.6 19.36363791081422 9.526678423272502 10.589003488864208 0 0 0
19749 5 0.6 2.3073503956012495 10.581478919401372 8.062624270079572 0 0 0
19750 5 0.6 18.926684316116436 9.27437823270041 4.342880879629185 0 0 0
19751 5 0.6 5.527200958979481 8.711748948823415 8.940862822043142 0 0 0
19752 5 0.6 8.645277964927411 16.462631258628434 11.343248692624094 0 0 0
112 1 2.4 20.505435842326662 13.672602455666006 25.918139461982705 0 0 0
113 1 2.4 17.51769583743461 13.255307031287199 25.266709358718252 0 0 0
114 1 2.4 13.723116400904637 14.841621081913411 24.450682055733726 0 0 0
115 1 2.4 7.696521728648497 14.987294071382639 24.901027433338648 0 0 0
116 1 2.4 2.7366938065384594 15.247020031470518 23.63445890888784 0 0 0
117 1 2.4 14.627702159951564 1.6905440513923575 30.84880356211727 0 0 0
118 1 2.4 17.09606504550086 5.8981541249391185 24.394438114064883 0 0 0