LAMMPS data file via write_data, version 29 Aug 2024, timestep = 1450350, units = metal

20300 atoms
5 atom types

0.13808228332239594 65.34800555102963 xlo xhi
0.13808228332239594 65.34800555102963 ylo yhi
0.13808228332239594 65.34800555102963 zlo zhi

Masses

1 28.086
2 15.9994
3 40.078
4 22.99
5 39.1

Atoms # charge

2600 1 2.4 5.300818432363403 2.4711256174262957 3.904040028443801 0 0 1
8345 2 -1.2 5.302320122025518 2.968561504748145 2.4275322394567986 0 1 0
2092 1 2.4 4.6726326070962365 4.385351482526133 1.8841293494784048 0 0 1
10366 2 -1.2 3.7580334039415053 2.2205488420550448 4.4237893975653595 0 0 0
8589 2 -1.2 5.746334370797508 5.464516799094647 2.5343954906503012 0 1 0
4875 1 2.4 5.860530532816873 7.078729451597172 2.658590403408326 1 1 0
13587 2 -1.2 1.3831436950115397 3.8552620852645716 0.9148121667060312 1 0 0
97 1 2.4 3.0243251406035774 1.8948815501485852 5.950320189323452 0 0 0
14849 2 -1.2 3.196497952933923 4.6535231667549875 2.5186066007034364 1 0 0
5341 2 -1.2 1.5973447332567607 1.3769615253871987 5.423911386130242 0 0 0
4843 1 2.4 0.9860809182421996 1.6738312588572437 3.918289538207538 1 1 0
16643 2 -1.2 1.1195888313234044 3.2599809314039785 3.5956286774353803 1 1 0
13492 2 -1.2 2.7722685760706485 3.3566715940813228 6.775703576046048 1 0 0
10295 2 -1.2 6.158928335043706 1.172243365094877 3.9449474302764185 0 0 1
17487 2 -1.2 3.9735873675962736 1.0214599428057405 6.760161322728948 1 1 1
540 1 2.4 1.5706834762065518 4.359883412500524 2.414367111099724 0 0 0
17109 2 -1.2 5.803174042569523 3.700932259756138 4.953408241832424 1 1 1
13631 2 -1.2 5.191276255122097 7.7558213669139215 1.2136329390142802 1 0 0
7119 2 -1.2 0.7720174817164688 5.695231023609327 2.616349854608709 0 0 1
10576 2 -1.2 5.11034046793869 7.588043996695069 3.9380014095879017 1 0 0
20111 4 0.6 3.9496422655395307 5.165875271185022 5.546877000765057 2 0 1
14200 2 -1.2 1.7531905137919108 0.6693568714124644 2.903139128374007 1 0 1
3480 1 2.4 7.1848756880247935 5.97434312583743 7.872117300025567 1 0 0
17648 3 1.2 0.35430588848634825 7.738932486371883 1.4654682342450864 1 0 1
8482 2 -1.2 7.233422127083113 7.623880062433965 7.853651459248147 0 1 0
443 1 2.4 2.9462404784360485 7.941140599847009 7.6557263069034 0 0 0
6134 2 -1.2 3.34689042088278 6.329818738680114 7.96137507897317 0 0 1
13782 2 -1.2 2.925008020652302 1.8578336684393673 0.38292563046320244 1 0 0
19542 4 0.6 2.1741332225275025 7.956952149692469 3.898300963577026 -1 0 1
5554 2 -1.2 7.330672159331055 5.53692563900354 6.247684618319676 0 0 0
8665 2 -1.2 2.323772333139836 8.134226471634195 6.289824521174168 0 1 0
7264 2 -1.2 12.805093909553372 7.728005757293446 15.940453551296734 0 0 1
17729 3 1.2 7.502966784935717 7.648392624268142 5.189204312823915 0 1 1
13501 2 -1.2 5.729258359963367 5.305627266347821 8.19452142716093 1 0 0
16907 2 -1.2 1.5369896072890474 6.2137941280844275 16.124045924172357 1 1 0
13640 2 -1.2 4.741895306069874 4.513026198407108 0.18752717194756635 1 0 0
1461 1 2.4 7.2625723186032864 4.05231960248062 5.619218983154078 0 1 0
6254 2 -1.2 7.437138964671157 7.366097197838804 2.8325757851586735 0 0 1
12315 2 -1.2 7.48509788917013 3.0576181778663427 6.9553831069156 0 1 1
17598 3 1.2 10.6288945968911 2.7462028276269965 4.848007650499185 0 1 -1
353 1 2.4 8.350384184784858 1.6930585568922618 7.436026269887562 0 0 1
5870 2 -1.2 12.525885934225034 7.016706525810095 2.9474979036565956 0 0 1
15705 2 -1.2 8.385152861143997 3.779204085800511 4.543586796006635 1 1 0
191 1 2.4 12.662968457249479 5.94171586591922 4.291708849506148 0 0 0
7337 2 -1.2 12.427196871128784 6.686465259704138 5.704505074068949 0 1 0
1324 1 2.4 11.680073341027544 7.186280597985427 1.7039860543631966 0 1 0
6349 2 -1.2 11.699903163413577 4.754596043301097 4.088267964542313 0 0 0
16778 2 -1.2 9.551717270020866 1.3875135157178464 6.447069964493859 1 1 0
9523 2 -1.2 11.012550258472587 5.316682354019472 7.451912474146636 0 0 0
16838 2 -1.2 10.139609208297868 1.2715359309921093 3.1535330580364898 1 1 0
913 1 2.4 8.62544116330813 7.1205796319630545 1.721585816717782 0 1 0
16921 2 -1.2 10.092088300430877 7.563455268245571 2.1894071185593993 1 1 0
6643 2 -1.2 13.537997993381143 4.776266188459805 7.900287212317576 0 0 0
18592 4 0.6 8.555347666799177 2.9750547650456505 2.436333544735108 0 1 -1
5290 2 -1.2 11.544375434399587 5.748924880139853 0.8360804623783391 0 0 0
18416 4 0.6 13.406166368515159 3.1716592124551424 3.9525039987385333 -1 1 1
13393 2 -1.2 11.330225032121875 0.9284821447135158 0.8653947616458313 0 1 1
16390 2 -1.2 14.240704659828424 5.363370011137921 4.07668414890562 1 1 1
14626 2 -1.2 8.868222355102438 5.566364547021315 1.1484273920093304 1 0 0
16282 2 -1.2 12.928220953020869 1.9684920772982297 5.42700384829716 1 0 1
426 1 2.4 13.853601064188123 1.0025127354538508 6.297159368164354 0 0 1
10175 2 -1.2 9.743366910016123 7.3201988793633745 5.913608079686655 0 0 1
1727 1 2.4 10.97474883777738 6.75822709982936 6.644108912860246 0 1 1
5269 2 -1.2 10.972898889647384 8.029272654460556 7.920512064909986 0 0 0
12590 2 -1.2 14.054634938516264 2.506044707174109 1.9953137731350097 0 1 0
926 1 2.4 10.833920735953027 0.25306680018902716 2.341710443577256 0 1 0
5439 2 -1.2 10.380079058124926 3.2840802784989354 0.44426287115805063 0 0 0
18685 4 0.6 12.71100387569866 3.3090414806952926 0.43150868938478654 0 1 1
8878 2 -1.2 7.415490224921257 0.31979955962349604 7.54563489515286 0 1 1
19975 4 0.6 13.969177032380154 8.189404862754108 7.175679519932041 1 2 0
9447 2 -1.2 19.68689750620098 8.587567585055375 0.1933637289260494 0 0 0
10062 2 -1.2 15.87422289825304 1.665055228346744 0.2533732743106977 0 0 1
10277 2 -1.2 14.717825400194016 5.591568685420227 1.4948165574748142 0 0 1
1339 1 2.4 15.178150742131065 1.5653432331236679 1.7559351251359403 0 1 0
5333 2 -1.2 15.073769887052602 1.7536479477490368 7.168318425490251 0 0 0
1311 1 2.4 19.46295276429963 1.0889869226630442 1.1727009974544171 0 0 1
422 1 2.4 15.322936207885718 5.697589525375611 2.939124041713425 0 0 1
400 1 2.4 16.99927919371143 3.2377534244766344 3.708091771077818 0 0 1
7932 2 -1.2 16.59046251120298 4.605201899387284 2.9183578056342268 0 1 1
10231 2 -1.2 16.007399320934184 7.11406363389833 3.3262259264696104 0 0 1
3046 1 2.4 16.12387096719459 2.923025963311634 6.672045668041142 0 1 0
9650 2 -1.2 15.96241112181832 2.9776200159601256 4.9637042068852555 0 0 0
9941 2 -1.2 20.01856886278015 1.4835684771017337 5.445033368225628 0 0 0
16980 2 -1.2 16.48647619705184 1.9065516119984625 2.807356615500964 1 1 0
3125 1 2.4 19.84162167641769 2.0743896600639595 3.9499683230763387 0 1 0
2175 1 2.4 18.61425836781636 1.3360860517129938 6.407895092518578 0 0 1
10509 2 -1.2 18.576719595978638 3.111857024251781 3.9968529866844387 0 0 0
9167 2 -1.2 21.326139186669266 2.7293309392502167 3.6074606377278315 0 1 1
16520 2 -1.2 17.752313920615794 2.6324990889667514 6.734104551961778 1 1 0
6007 2 -1.2 20.62253340661217 6.226715908152857 6.323436030385621 0 0 1
10575 2 -1.2 19.572456988196656 0.9862150034620022 2.8551061926778054 0 0 0
10504 2 -1.2 16.014072833332666 4.314412739467824 7.346453532068976 0 0 0
11352 2 -1.2 18.583067656786138 7.641077121414641 3.496998886309113 0 1 1
13324 2 -1.2 17.39962731857498 7.76576768060578 1.0847027889081147 0 1 1
13344 2 -1.2 20.944661892016573 1.4283597086931001 0.6488450343188032 0 1 1
10294 2 -1.2 18.46886700081139 2.1691262819378956 0.557847499788104 0 0 1
972 1 2.4 17.274669122765385 7.990334112523394 2.7269345070319786 0 1 0
18675 4 0.6 20.70420433565499 6.287283359230458 2.855384295153966 0 1 1
17371 2 -1.2 18.876112397027086 0.8043278468951897 7.959904972985539 1 1 1
18196 3 1.2 19.118659063953647 7.721835706432213 5.654447795355782 0 1 0
5440 2 -1.2 21.51710491067921 6.772727445157798 0.43524911219119594 0 0 0
13091 2 -1.2 21.763890919920946 12.898870668444788 14.465745169273196 0 1 0
19472 4 0.6 19.648215474498386 4.654463824876937 8.317595018168296 0 1 0
8688 2 -1.2 17.2552266020759 8.267925599530514 7.124104231302727 0 1 0
13441 2 -1.2 2.668617963094242 8.280460334646891 1.741882874305564 1 0 0
19979 4 0.6 0.8489750742103644 10.701422043708407 2.223582674894734 2 0 0
5411 2 -1.2 0.7166664466283926 15.527021075544269 4.867198727647759 0 0 0
19931 4 0.6 3.876931942158182 9.392719309006619 4.487336428059457 1 1 2
16335 2 -1.2 1.8026707441046155 11.108599297263632 7.085947666229336 1 0 1
495 1 2.4 3.9306044382611574 8.816812554431426 1.0217558569899385 0 0 0
6082 2 -1.2 3.3576184411528196 14.240729975931828 3.8345099811897314 0 0 1
1666 1 2.4 2.5221752251215905 13.834077500127206 2.441939199799599 0 1 1
14185 2 -1.2 5.607361630295756 14.727019901923244 5.275330868043105 1 0 1
5449 2 -1.2 2.195890987634542 10.887926076174779 4.41076626643363 0 0 0
3884 1 2.4 6.732454930808023 11.158401018592741 5.513061775794932 1 0 1
5313 2 -1.2 6.364625002936023 11.96803216967811 4.185334645592795 0 0 0
5949 2 -1.2 5.278140835866561 10.957470778402419 6.434427319856347 0 0 1
15339 2 -1.2 4.494466059928468 10.253770231353236 1.6366269169520777 1 0 1
435 1 2.4 4.398624884089451 11.841789698140351 1.1678301923127576 0 0 1
9492 2 -1.2 5.600104474468205 12.72020706403955 1.881353922906569 0 0 0
14516 2 -1.2 2.9930932970657276 12.405687993052098 1.7737281902229594 1 0 0
3865 1 2.4 1.2579560655090574 11.24147109643305 5.573200596533915 1 0 1
3942 1 2.4 4.673547282575119 15.26343402850837 4.116136815430171 1 0 0
11278 2 -1.2 2.664763035118547 15.061789864939252 1.484087847434968 1 0 1
5355 2 -1.2 0.9486350408071843 13.697084927057896 2.9538115456046596 0 0 0
19671 4 0.6 4.024901101238438 12.991280525189406 6.015839925011816 1 1 -1
14653 2 -1.2 5.4559709283279325 15.534282966857164 2.8331886100866726 1 0 0
1388 1 2.4 6.870462529731327 12.107753918618867 2.6123853188485615 0 1 0
430 1 2.4 5.041167382807791 10.29749607507138 7.888759721148565 0 0 1
5348 2 -1.2 1.0416849481831698 12.947639091795354 5.46514848913429 0 0 0
5322 2 -1.2 4.35536064111161 8.830791037149517 7.798519702459704 0 0 0
7266 2 -1.2 7.398086012147921 9.865630182372184 5.065463494576381 0 0 1
18686 4 0.6 6.829833713233032 14.118966317180861 7.412102357493002 0 1 1
722 1 2.4 0.334062792659006 13.959631660427998 4.512538720355601 0 0 1
19594 4 0.6 7.215703993314385 14.92430665840135 1.3053104681678775 1 0 -1
15203 2 -1.2 4.849304535904706 13.5236099535338 8.334868303410438 1 0 1
18172 3 1.2 4.546503464017237 15.784019296683214 0.42524753272839716 1 0 0
2277 1 2.4 1.1434854790919824 11.879991805094361 8.389277416593501 0 0 0
18227 4 0.6 4.995080548930383 15.721610232077834 7.330862999469119 0 0 0
16960 2 -1.2 8.173028506169224 8.212649878189772 0.6063357663850866 1 1 0
7269 2 -1.2 7.197349817326232 10.551653522319715 1.9040386829103169 0 0 1
9316 2 -1.2 12.30833894616525 8.542022022102993 1.0073276582477204 0 1 1
18844 4 0.6 7.587321769534304 14.625872530249776 4.037708572700885 0 1 0
5755 2 -1.2 7.757159460186098 12.11043296371673 6.3624474213823214 0 0 1
18242 4 0.6 10.348659656004243 12.204067599409598 2.8160003415275323 0 -1 0
9134 2 -1.2 8.17486271095529 12.948089646717396 2.4593406416909733 0 1 1
6968 2 -1.2 9.605823943582115 10.41256649696267 0.8877319569297245 0 0 1
6130 2 -1.2 12.028492429339757 11.227957015681651 1.172538423267867 0 0 1
18475 4 0.6 10.025520530122451 9.466779110001962 4.605196447100695 0 -1 0
745 1 2.4 12.809404436633598 9.918296655944205 1.8683702228809187 0 0 1
9213 2 -1.2 10.154121940897937 11.983664050069907 5.14495140849664 0 1 1
9699 2 -1.2 12.421509352014564 10.021495169180369 3.4724577495471807 0 0 0
8612 2 -1.2 12.376417196357185 10.019107626626056 6.1723092306659595 0 1 0
11198 2 -1.2 13.857437787769605 13.667639586446615 2.600408908532312 0 0 1
14405 2 -1.2 13.54206369415482 12.10476885968814 4.84017678835427 1 0 1
6115 2 -1.2 9.581060166454671 10.31833609844436 7.096838321259975 0 0 1
1426 1 2.4 9.402408903002797 11.875523613114726 6.45821418121066 0 1 0
1368 1 2.4 13.15511992006771 10.423294824455608 4.92790148526641 0 1 0
5379 2 -1.2 13.67584877794574 14.996400444871991 6.575301820803661 0 0 0
9402 2 -1.2 9.964612575019299 13.00038648865202 7.544471382690825 0 0 0
440 1 2.4 8.085145357416584 9.948278394811291 0.6916937174936216 0 0 1
8244 2 -1.2 14.38717102340428 10.036875440313217 1.740437243720847 0 0 1
18640 4 0.6 12.313604169679135 13.038834101727385 7.076949904963231 0 1 1
8054 2 -1.2 13.503912737858645 16.248852253647847 1.781049654266747 0 0 1
428 1 2.4 14.273714740404033 14.88211733375517 1.649622134278507 0 0 1
581 1 2.4 10.301068558817127 9.467827866227712 8.201029001693732 0 0 0
1786 1 2.4 14.589073354231855 12.997666219876018 3.9973252851118453 0 0 0
6495 2 -1.2 18.525510526878314 14.766437439555611 14.908187582707852 0 0 0
17397 2 -1.2 17.817613476099616 0.28477203713204347 5.535743406951905 1 1 1
8399 2 -1.2 14.717404175832169 9.759459514021563 4.713964088898922 0 1 0
19840 4 0.6 15.881192313992301 11.363998721922199 1.121164136982066 0 0 2
9379 2 -1.2 17.83871825890107 15.50149720645793 0.4665359798768301 0 0 1
19705 4 0.6 19.55283672424888 10.365891012334089 3.323807429062983 2 0 1
10356 2 -1.2 17.159521490223153 13.055374952324858 1.0264921858465974 0 0 0
11309 2 -1.2 16.673034237438614 15.184056654286993 6.763316618761424 0 0 1
408 1 2.4 15.192823078657952 14.380955079396335 6.788238325891403 0 0 1
10176 2 -1.2 15.259523011159505 14.156711412083844 4.856200794243329 0 0 1
9251 2 -1.2 15.780488861369234 11.855860083593438 3.682183754373717 0 1 1
6100 2 -1.2 15.88692117202796 15.124348409075102 2.1420131174505284 0 0 1
5400 2 -1.2 17.183019070748646 10.423475208326638 5.442267737535024 0 0 0
14213 2 -1.2 17.02847863137975 9.56741300584984 3.0188941992230593 1 0 1
1846 1 2.4 17.126336674062472 9.893044890969666 7.0751579650466665 0 0 0
3553 1 2.4 19.863129075619707 14.19020624361533 3.3245696047359905 1 0 0
496 1 2.4 16.120737047684436 10.329343278380739 4.209812883817226 0 0 0
12323 2 -1.2 18.29147693895218 14.564131399487753 2.9104254426316545 0 0 1
8213 2 -1.2 20.674077590878223 14.325631644005446 1.8209698915674202 0 0 1
16893 2 -1.2 20.182627510845148 12.81229181568729 3.9583335755604274 1 1 0
13554 2 -1.2 15.637287278386177 10.195033523630725 7.556152597189991 1 0 0
2592 1 2.4 17.266795242618066 14.484812613101171 1.5761080254582631 0 0 1
10199 2 -1.2 20.49483353524859 15.388667378213734 4.3136584932852235 0 0 1
6494 2 -1.2 20.409374532300507 9.607630854666542 5.63880900545696 0 0 0
10278 2 -1.2 18.291332355135072 10.548106491317736 7.83974294450121 0 0 1
9761 2 -1.2 15.460643666246511 12.676647986009067 7.0086340850103594 0 0 0
19445 4 0.6 19.127406897048445 12.225034029538023 6.07108339648681 1 0 0
2124 1 2.4 20.935644892773528 13.365511323956138 0.45993178371040977 0 0 1
6502 2 -1.2 19.693163970091213 14.029136048628752 7.364830982396123 0 0 0
18740 4 0.6 16.809857260862987 16.08274562220544 4.316831709376565 -1 0 0
19047 4 0.6 21.424631126383805 13.81032525010674 5.861076958611006 0 0 2
5369 2 -1.2 19.889452342148125 10.089343726594933 10.934623469848878 0 0 0
814 1 2.4 17.230608060411875 16.409866123627246 7.740877932028057 0 0 1
16305 2 -1.2 19.78520620783538 12.136618938910994 0.5186456434193362 1 0 1
2103 1 2.4 15.15221349058648 11.67328803319604 8.253277296303649 0 0 1
18591 4 0.6 3.9601014281171185 0.5855133835869436 8.893226219806126 1 1 -1
3972 1 2.4 2.315877750869192 3.5599079591656935 8.238504735076633 1 0 0
17331 2 -1.2 0.22032294350320017 4.664593890956063 11.538783721951061 1 1 1
7605 2 -1.2 6.862064952554388 0.49029485857904065 15.347732014497707 0 1 0
5321 2 -1.2 1.034456298433371 4.457234092196842 8.646365833588568 0 0 0
10408 2 -1.2 1.4775747745776324 1.2429610795425374 15.507183322267695 0 0 0
6044 2 -1.2 6.42028081541603 7.599849962943072 15.880836404859343 0 0 1
18211 4 0.6 1.8253760898745557 6.472077904756011 10.458406888504513 0 -1 0
8450 2 -1.2 2.6498179358640392 3.678675514892044 15.378897143263961 0 1 0
13460 2 -1.2 0.8621778514107703 3.1744299410893317 13.660819444455173 1 0 0
15555 2 -1.2 1.6818269469329763 2.0635160032506636 8.872205470815484 1 1 0
18754 4 0.6 4.88152855631209 4.12830290177834 12.501617823558389 1 1 0
29 1 2.4 0.9908510304185401 4.669349577269768 12.979707856230656 0 0 0
6014 2 -1.2 3.658008476180316 3.8872980785450753 9.130582119451875 0 0 1
5011 1 2.4 3.0544678626895974 0.8609403549603838 12.118249490275943 1 1 0
5386 2 -1.2 2.439581987807143 5.012292819147117 12.82803055452149 0 0 0
3652 1 2.4 2.0691402386215576 2.4425146763576575 14.552220002431326 1 0 0
16832 2 -1.2 3.2217888774756953 1.7307005312733037 13.541620226824456 1 1 0
4866 1 2.4 4.356799495931544 5.411734141433589 9.047558833254884 1 1 0
520 1 2.4 6.927604897116546 3.6241537203810714 15.164136861149146 0 0 0
6474 2 -1.2 4.210243430044219 6.1039437198326345 10.381779730659538 0 0 0
5413 2 -1.2 5.255161031530388 3.494322808032126 15.415614226396873 0 0 0
3928 1 2.4 6.841557239752536 6.570691536403522 14.577661401048921 1 0 0
8835 2 -1.2 5.7488638050634195 6.139586875115026 13.63115093758762 0 1 0
17887 3 1.2 6.576093294087281 1.9406853623396596 11.69722775718148 0 1 1
10164 2 -1.2 1.9076612898320047 1.6703569738559958 11.38085686210754 1 0 1
3571 1 2.4 0.8247374740378439 1.4801220572218663 10.129270466584806 1 0 0
15669 2 -1.2 4.366588287924857 0.769360479069953 11.301704309769693 1 1 0
6527 2 -1.2 3.4283086514599135 7.724322845754424 14.954662822635738 0 0 0
18061 3 1.2 3.690701690841632 6.935997584832073 12.623908611591217 1 1 0
19653 4 0.6 6.226797439068037 6.746402566656998 11.382387710872559 1 -1 0
8382 2 -1.2 6.936416665415174 4.129794657924914 10.787437244185563 0 1 0
13899 2 -1.2 7.154073961091585 3.069416860649689 13.776537201539576 1 0 0
12409 2 -1.2 7.25284499770503 5.1763842138118 15.390801200522638 0 1 0
16585 2 -1.2 0.2062010834661554 5.831993031969463 13.804738873437737 1 1 0
16696 2 -1.2 1.9067411300494252 8.218530558624888 12.344587693804408 1 1 0
212 1 2.4 2.9796504979407823 6.93379966889827 16.282491674099756 0 0 0
3100 1 2.4 3.957075761338887 4.058707999273665 16.23824319213371 0 1 0
9834 2 -1.2 20.933263031440678 15.899731708837493 15.3183298762452 0 0 0
8724 2 -1.2 9.382263286771135 0.24154778536156304 14.661110088834286 0 1 0
1717 1 2.4 12.057798711657608 4.673415308861655 8.548912388085784 0 1 1
18554 4 0.6 11.761160920938078 1.1155232541695048 14.540960687564741 0 1 -1
5417 2 -1.2 11.504014788930975 3.1488728877394476 8.970351178568414 0 0 0
19919 4 0.6 9.506646870256402 2.0429400324169493 12.972457853709527 0 0 0
1531 1 2.4 12.30945670110487 0.7422974590166134 10.912175000842902 0 1 0
20265 4 0.6 10.788878179264549 7.331594521547445 10.150004574221741 1 2 1
8360 2 -1.2 12.10756905139623 5.634243496522554 9.801556557302014 0 1 0
7389 2 -1.2 13.544327300102772 1.548846990823293 10.60809418181692 0 1 0
19243 4 0.6 13.66822970559432 6.939295137193233 10.873619304378256 0 2 0
8326 2 -1.2 11.174288084554789 5.624237709262882 15.414415151238599 0 1 0
7424 2 -1.2 9.005218027355875 2.005513569519441 8.967003153057178 0 1 0
7535 2 -1.2 10.841853421174179 3.1349405942676754 14.767805948773246 0 1 0
16516 2 -1.2 8.224505579270913 5.438256615176959 8.943519124186349 1 1 0
82 1 2.4 10.281523282131138 2.5899352470612573 9.831328595321477 0 0 0
8720 2 -1.2 8.071385134037083 7.190731299553735 13.746192331952251 0 1 0
5349 2 -1.2 10.847381631028512 1.5974720921492735 10.937104231126783 0 0 0
8337 2 -1.2 9.613580239678338 3.859458516768714 10.556636519903012 0 1 0
46 1 2.4 8.266436490688726 4.744478864080781 10.369171697224205 0 0 0
5479 2 -1.2 8.52010643718235 6.253469372482176 11.294740881868195 0 0 0
7190 2 -1.2 12.324355231278457 4.542746920015711 13.340706956597089 0 0 1
2198 1 2.4 9.23148350109104 6.564354075225551 12.712424899308912 0 0 0
9354 2 -1.2 9.58896951532342 5.067103706164494 13.395231415362066 0 0 0
555 1 2.4 10.908593454995229 4.533680763371179 14.173871311048888 0 0 0
6350 2 -1.2 10.589336018825055 7.382118042160878 12.371868485305763 0 0 0
6144 2 -1.2 13.72683589471867 5.340295661379222 15.424316101175013 0 0 1
1349 1 2.4 13.850240200381531 4.642416783129732 13.85012228718665 0 1 0
6556 2 -1.2 7.591399674185406 2.806578390877343 16.2864924416495 0 0 0
10403 2 -1.2 14.467244888430406 3.2698680329471084 13.905704754435673 0 0 0
18329 4 0.6 10.21761799565539 1.6545125246214767 16.389650161031156 -1 -1 0
10087 2 -1.2 16.81201643238193 12.764346053973075 15.286301818844464 0 0 1
5418 2 -1.2 21.785499864414263 0.6316826971841444 9.355581782113067 0 0 0
3385 1 2.4 16.61069881885524 0.23776708965237692 13.676017511118838 0 1 1
19172 4 0.6 20.09051934636252 8.158885548809492 9.637699629603322 1 1 1
8771 2 -1.2 15.478558420837212 6.6332333789112194 8.460551836714087 0 1 0
3231 1 2.4 15.035699876176462 5.030594624610803 8.504745722479859 0 1 0
10114 2 -1.2 14.801261498656155 5.5133446198707485 12.941410377333916 0 0 1
451 1 2.4 16.89808729508287 7.418587781210975 8.55507898269671 0 0 0
8365 2 -1.2 15.40563356357682 4.49108201269239 9.95105639542778 0 1 0
8663 2 -1.2 16.322002973577543 0.5061698404713317 15.222856227428892 0 1 0
10297 2 -1.2 19.566866495004962 0.4961894094580368 10.545153730179983 0 0 1
10643 2 -1.2 18.148827096723572 6.515960904736183 8.804982764158273 0 0 0
18439 4 0.6 17.757849093481042 4.696909483058748 10.346625207456013 -1 1 0
5343 2 -1.2 16.976856555631826 1.4139282061507739 9.810136214201496 0 0 0
3495 1 2.4 18.490814986801382 1.5144131570803512 9.461758661586122 0 0 0
5425 2 -1.2 17.300752494640832 3.166231111459099 14.978508469076182 0 0 0
12775 2 -1.2 19.027044644655316 2.9211946294182085 9.56154541621902 0 1 0
10587 2 -1.2 16.907025629842355 6.739410246403768 11.682386079829302 0 0 0
1381 1 2.4 17.88138976177051 2.9405535883177567 13.528689107010697 0 1 0
1702 1 2.4 16.504359360513757 5.677687190354205 13.002326272868295 0 1 1
11462 2 -1.2 17.175271317029242 4.223242646922182 12.580475486987666 0 1 0
13555 2 -1.2 19.414687755396667 3.1080453414984777 13.532425293861435 1 0 0
12236 2 -1.2 17.35676268373986 1.4577931152425558 13.002040413651995 0 1 1
10589 2 -1.2 19.957128624013794 7.361962357146086 14.888221396572833 0 0 0
12979 2 -1.2 16.87380823236037 6.185016180222839 14.33025464702999 0 1 0
17933 3 1.2 15.37209138299576 2.495029700314497 11.51143920772397 0 1 0
19847 4 0.6 21.174388732998104 3.105417804009002 15.212945471378331 1 -1 -1
5496 2 -1.2 19.161357311225203 4.956753625785934 15.995541913958869 0 0 0
19797 4 0.6 20.49826160593924 3.7841755600698477 11.308720881660314 1 0 0
18159 3 1.2 15.108079815400584 2.3550529767831154 15.989990669677443 1 1 0
18588 4 0.6 15.663978291993526 6.903254363587252 16.231237033946698 0 0 0
1506 1 2.4 19.49239317539521 6.483822584191034 16.22926490565214 0 1 0
11508 2 -1.2 21.86595404628511 1.053169526198058 16.081333174249853 0 0 0
13330 2 -1.2 15.174489620093906 0.2557764668563345 12.9345837723656 0 1 1
953 1 2.4 21.711936316343955 10.056701551619378 6.433945431668166 0 1 0
19508 4 0.6 0.8315777044103702 15.008439586139405 8.129336166527828 1 1 0
6441 2 -1.2 0.18505047005354222 15.895447998918005 12.627090205805173 0 0 0
13826 2 -1.2 6.866125096880299 16.172371656487012 8.855538985656654 1 0 0
12185 2 -1.2 6.666357786266717 10.156446483656284 8.331010884332828 0 1 1
9115 2 -1.2 6.586756650678533 8.516553331722074 10.32196775308184 0 1 1
13528 2 -1.2 1.9252461534213519 8.257948075165265 8.926293720714451 1 0 0
5295 2 -1.2 5.061434144206229 9.760644307256008 15.963115633747098 0 0 0
78 1 2.4 0.6908453782399062 15.020993644055729 11.397966458179095 0 0 0
14554 2 -1.2 1.1407185633731438 13.398663730873675 11.990454249391568 1 0 0
5495 2 -1.2 2.082361163451837 15.64988915684407 10.828109217645528 0 0 0
6127 2 -1.2 0.9958463607187105 10.674559807455953 9.41189709996699 0 0 1
3486 1 2.4 0.6349188923437373 12.199749853029601 12.977122344180339 1 0 0
7719 2 -1.2 4.180013642715048 11.144750433356565 8.986548247393028 0 0 0
18225 4 0.6 5.234468991831957 10.264822572232413 11.269152337432509 -1 1 -1
5254 2 -1.2 2.309419921270397 13.012094064082978 8.831741148275727 0 0 0
19197 4 0.6 6.065775409807662 11.296707040110524 13.672869705305937 0 0 1
4901 1 2.4 0.7375010908163188 9.203102257060383 12.246777291260035 1 1 0
5668 2 -1.2 1.1974726334997199 10.69258302004375 12.446550265364776 0 0 0
14432 2 -1.2 2.6356421961220295 10.23480408173087 15.174550890161136 1 0 0
12477 2 -1.2 3.9323302414074006 12.503057142719337 15.006779552115106 0 1 0
95 1 2.4 3.874271764980373 12.72443198514369 9.219228866251532 0 0 0
6211 2 -1.2 4.720335740915326 9.431195267252901 13.422082039787012 0 0 1
503 1 2.4 3.9860590488883134 9.280043238054628 14.767421615744322 0 0 0
13436 2 -1.2 4.132381777545499 13.09589335404746 10.82734937264192 1 0 0
895 1 2.4 5.141835024760557 14.081808845736095 11.543719406705153 0 0 1
6634 2 -1.2 5.25131584530638 13.65323393195352 13.168448755998753 0 0 0
6075 2 -1.2 6.687256288533487 14.017086767023056 10.974767955673054 0 0 1
1529 1 2.4 4.486654336407797 13.953319822815384 14.513176524975941 0 1 0
1866 1 2.4 2.4421820082371544 11.83079308250046 15.44392411493072 0 0 0
13326 2 -1.2 3.278029226332197 14.945208131799292 14.338402127906287 0 1 1
9635 2 -1.2 1.2830078930437523 12.551055630522677 14.52627886573675 0 0 0
14371 2 -1.2 4.530135639752168 15.613043314630179 11.767978932995048 1 0 1
6391 2 -1.2 5.5168639801019665 14.575080424082817 15.593252659676063 0 0 0
499 1 2.4 0.5278800113322847 9.197045515080704 9.29928701818341 0 0 0
6624 2 -1.2 7.006756351562986 11.574358936840323 11.681456742238904 0 0 0
4923 1 2.4 7.370462418355448 8.86625880847215 9.05348113040069 1 1 0
850 1 2.4 0.34147809161911163 16.00829827383118 16.051254209640835 0 0 1
11521 2 -1.2 7.476758615933554 12.653322767508081 15.493245554732042 0 0 0
18 1 2.4 6.548935039180272 9.129307359421336 16.389075493522082 0 0 0
7083 2 -1.2 19.95410009907122 13.883258436796002 12.524415822010502 0 0 1
8353 2 -1.2 11.818257860438765 12.881189153305073 16.226255801321468 0 1 0
70 1 2.4 11.785807934074635 9.005559797007546 15.887211379794334 0 0 0
13562 2 -1.2 13.583837028447292 11.524170739855936 8.52205527984135 1 0 0
19809 4 0.6 8.402641606662758 9.637024691930304 11.73063652854048 1 0 0
19005 4 0.6 12.535468776599625 14.877546688661392 12.875737133775747 0 0 1
13724 2 -1.2 9.234761528227015 15.245199424507275 8.849534739557253 1 0 0
11188 2 -1.2 12.544868484050221 10.438193758782075 15.812049239518666 0 0 1
13825 2 -1.2 10.825187641500994 8.671436394020716 14.638536734070678 1 0 0
13382 2 -1.2 8.945009210941503 9.082278077499518 9.291301274847477 0 1 1
1919 1 2.4 11.240495187407713 8.821506507079752 13.092002111998507 0 0 0
557 1 2.4 7.8389717391007006 12.836216910195846 11.340839512266708 0 0 0
5993 2 -1.2 7.683354134802569 10.051982065134277 15.650239173891046 0 0 0
5689 2 -1.2 12.849237387497398 8.944024585930034 13.061532437006957 0 0 0
7117 2 -1.2 13.503509360256526 8.950465905225228 9.210387108448153 0 0 1
5338 2 -1.2 8.03365457357271 15.603175505270963 13.601869970309993 0 0 0
5528 2 -1.2 10.34806543840852 15.651598237015719 12.519725776239763 0 0 0
10581 2 -1.2 11.372514890309194 10.413725418355932 9.219171389911407 0 0 0
6017 2 -1.2 9.896241967122483 11.594327874715855 14.92819278805602 0 0 1
11452 2 -1.2 10.603367300669435 9.864232312117199 12.15828890633792 0 0 0
9764 2 -1.2 11.17057903491486 13.707722595216843 9.855831349380866 0 0 0
1474 1 2.4 12.940458165117924 10.29934884060466 9.459205579043923 0 1 0
17769 3 1.2 11.12708487766535 11.993835486005294 11.405837985599174 1 0 0
3543 1 2.4 14.065483846781264 9.879617838259922 12.318060097887573 1 0 0
8708 2 -1.2 13.320059020735611 10.619510113570156 11.08228804658598 0 1 0
5656 2 -1.2 8.794918565699945 12.783668387354545 10.001664596709649 0 0 0
1347 1 2.4 9.828174142830072 13.733097910418467 9.134270901010973 0 1 0
6293 2 -1.2 8.963586002607693 13.353517042295017 12.396461155118505 0 0 0
533 1 2.4 9.202001659451097 14.70193642476203 13.442845327227579 0 0 0
10340 2 -1.2 11.912481701579479 12.708570669796265 13.485961167412329 0 0 1
405 1 2.4 10.986491434399815 12.756670493231963 14.8051308220955 0 0 1
5353 2 -1.2 10.13786195457661 14.092348036643267 14.680490703188209 0 0 0
2201 1 2.4 8.494548094222301 11.412501627692984 15.92015171107502 0 0 0
18575 4 0.6 14.449301536527248 13.089522440147494 14.103249348805024 0 0 0
5337 2 -1.2 13.898244536311516 15.320740420491212 14.61568128823762 0 0 0
4425 1 2.4 19.34787606058298 16.180873292840587 14.917864255313464 1 0 0
11739 2 -1.2 14.861236163014368 10.907075254400818 13.165381692881622 0 0 0
20260 4 0.6 0.32181209893590657 14.733181077589295 0.6922876563075135 1 1 1
2281 1 2.4 17.258592763927684 14.277679104571154 15.903190371239036 0 0 0
10329 2 -1.2 15.355557043591855 15.522186469244074 11.14105419398388 0 0 1
5268 2 -1.2 16.54143185020401 10.265753463679228 15.666601679342957 0 0 0
8496 2 -1.2 17.319288068934082 9.363040526899418 12.211104754190096 0 1 0
6332 2 -1.2 16.09384129501822 15.257370600774589 16.06234906792783 0 0 0
1756 1 2.4 21.449368725493784 13.241058081470044 12.753192191177904 0 0 0
846 1 2.4 16.531631837383987 8.282040906667948 11.39203738119079 0 0 1
3940 1 2.4 16.012149673268066 11.563466018599359 16.31942439139587 0 0 0
14156 2 -1.2 15.960822594161176 11.71825669370162 9.560689334590567 1 0 1
13024 2 -1.2 21.159093368698528 8.979008373214334 13.05929354497582 0 1 0
10014 2 -1.2 20.788043657543984 9.74976215984922 15.629411487989005 0 0 0
6214 2 -1.2 19.02014385656606 13.45925677580464 9.97595971201087 0 0 1
18011 3 1.2 17.95180083751011 10.926199781856017 10.229639449244948 1 1 1
10479 2 -1.2 16.27097996787325 15.637820949308054 13.527254216067286 0 0 0
5382 2 -1.2 16.937995736320186 8.527467319955768 9.75024190238642 0 0 0
19466 4 0.6 20.857835216852436 11.408878621441124 9.211786736219418 -2 1 0
9190 2 -1.2 14.998517966585124 8.687391320311933 11.663771397773148 0 1 1
3664 1 2.4 20.543142248041814 10.383224100203513 12.32708723049489 1 0 0
1940 1 2.4 21.08476941848804 8.516329285891683 14.568111432994474 0 0 0
6660 2 -1.2 19.67553527217916 11.02785685254433 13.40665927939505 0 0 0
10371 2 -1.2 18.421993713048394 15.80495637754219 8.662264893446968 0 0 0